# vtk DataFile Version 3.0
#This file was generated by the deal.II library on 2020/12/25 at 16:49:12
ASCII
DATASET UNSTRUCTURED_GRID

POINTS 14964 double
0.458332 0.541659 0
0.499999 0.541659 0
0.458332 0.583326 0
0.499999 0.583326 0
0.416666 0.541659 0
0.458332 0.541659 0
0.416666 0.583326 0
0.458332 0.583326 0
0.416666 0.499992 0
0.458332 0.499992 0
0.416666 0.541659 0
0.458332 0.541659 0
0.458332 0.499992 0
0.499999 0.499992 0
0.458332 0.541659 0
0.499999 0.541659 0
0.541666 0.624993 0
0.583332 0.624993 0
0.541666 0.66666 0
0.583332 0.66666 0
0.499999 0.624993 0
0.541666 0.624993 0
0.499999 0.66666 0
0.541666 0.66666 0
0.499999 0.583326 0
0.541666 0.583326 0
0.499999 0.624993 0
0.541666 0.624993 0
0.541666 0.583326 0
0.583332 0.583326 0
0.541666 0.624993 0
0.583332 0.624993 0
0.499999 0.541659 0
0.541666 0.541659 0
0.499999 0.583326 0
0.541666 0.583326 0
0.499999 0.499992 0
0.541666 0.499992 0
0.499999 0.541659 0
0.541666 0.541659 0
0.541666 0.499992 0
0.583332 0.499992 0
0.541666 0.541659 0
0.583332 0.541659 0
0.541666 0.541659 0
0.583332 0.541659 0
0.541666 0.583326 0
0.583332 0.583326 0
0.499999 0.458326 0
0.499999 0.416659 0
0.541666 0.458326 0
0.541666 0.416659 0
0.541666 0.458326 0
0.541666 0.416659 0
0.583332 0.458326 0
0.583332 0.416659 0
0.541666 0.499992 0
0.541666 0.458326 0
0.583332 0.499992 0
0.583332 0.458326 0
0.499999 0.499992 0
0.499999 0.458326 0
0.541666 0.499992 0
0.541666 0.458326 0
0.499999 0.374993 0
0.541666 0.374993 0
0.499999 0.416659 0
0.541666 0.416659 0
0.499999 0.333326 0
0.541666 0.333326 0
0.499999 0.374993 0
0.541666 0.374993 0
0.541666 0.333326 0
0.583332 0.333327 0
0.541666 0.374993 0
0.583332 0.374993 0
0.541666 0.374993 0
0.583332 0.374993 0
0.541666 0.416659 0
0.583332 0.416659 0
0.458332 0.499992 0
0.458332 0.458326 0
0.499999 0.499992 0
0.499999 0.458326 0
0.416666 0.499992 0
0.416666 0.458326 0
0.458332 0.499992 0
0.458332 0.458326 0
0.416666 0.458326 0
0.416666 0.416659 0
0.458332 0.458326 0
0.458332 0.416659 0
0.458332 0.458326 0
0.458332 0.416659 0
0.499999 0.458326 0
0.499999 0.416659 0
0.541666 0.333326 0
0.541666 0.29166 0
0.583332 0.333327 0
0.583333 0.29166 0
0.499999 0.333326 0
0.499999 0.29166 0
0.541666 0.333326 0
0.541666 0.29166 0
0.708333 0.458327 0
0.708333 0.41666 0
0.749999 0.458328 0
0.749999 0.416661 0
0.708332 0.499994 0
0.708333 0.458327 0
0.749999 0.499994 0
0.749999 0.458328 0
0.666666 0.499993 0
0.666666 0.458327 0
0.708332 0.499994 0
0.708333 0.458327 0
0.666666 0.458327 0
0.666666 0.41666 0
0.708333 0.458327 0
0.708333 0.41666 0
0.416666 0.583326 0
0.458332 0.583326 0
0.416666 0.624993 0
0.458332 0.624993 0
0.458332 0.583326 0
0.499999 0.583326 0
0.458332 0.624993 0
0.499999 0.624993 0
0.458332 0.624993 0
0.499999 0.624993 0
0.458332 0.66666 0
0.499999 0.66666 0
0.416666 0.624993 0
0.458332 0.624993 0
0.416666 0.66666 0
0.458332 0.66666 0
0.458333 0.708327 0
0.499999 0.708327 0
0.458333 0.749994 0
0.499999 0.749994 0
0.416666 0.708327 0
0.458333 0.708327 0
0.416666 0.749994 0
0.458333 0.749994 0
0.416666 0.66666 0
0.458332 0.66666 0
0.416666 0.708327 0
0.458333 0.708327 0
0.458332 0.66666 0
0.499999 0.66666 0
0.458333 0.708327 0
0.499999 0.708327 0
0.458332 0.333326 0
0.499999 0.333326 0
0.458332 0.374993 0
0.499999 0.374993 0
0.458332 0.374993 0
0.499999 0.374993 0
0.458332 0.416659 0
0.499999 0.416659 0
0.416666 0.374993 0
0.458332 0.374993 0
0.416666 0.416659 0
0.458332 0.416659 0
0.416666 0.333327 0
0.458332 0.333326 0
0.416666 0.374993 0
0.458332 0.374993 0
0.374999 0.374993 0
0.374999 0.416659 0
0.333332 0.374993 0
0.333332 0.41666 0
0.374999 0.333327 0
0.374999 0.374993 0
0.333333 0.333327 0
0.333332 0.374993 0
0.416666 0.333327 0
0.416666 0.374993 0
0.374999 0.333327 0
0.374999 0.374993 0
0.416666 0.374993 0
0.416666 0.416659 0
0.374999 0.374993 0
0.374999 0.416659 0
0.791666 0.791664 0
0.791666 0.833331 0
0.75 0.791663 0
0.75 0.83333 0
0.791666 0.749997 0
0.791666 0.791664 0
0.749999 0.749996 0
0.75 0.791663 0
0.291666 0.624994 0
0.291666 0.666661 0
0.249999 0.624995 0
0.249999 0.666662 0
0.291666 0.583327 0
0.291666 0.624994 0
0.249999 0.583328 0
0.249999 0.624995 0
0.333332 0.583326 0
0.333332 0.624994 0
0.291666 0.583327 0
0.291666 0.624994 0
0.333332 0.624994 0
0.333333 0.666661 0
0.291666 0.624994 0
0.291666 0.666661 0
0.416666 0.333327 0
0.374999 0.333327 0
0.416666 0.29166 0
0.374999 0.291661 0
0.374999 0.333327 0
0.333333 0.333327 0
0.374999 0.291661 0
0.333333 0.291661 0
0.624999 0.66666 0
0.624999 0.708328 0
0.583332 0.66666 0
0.583333 0.708327 0
0.666666 0.666661 0
0.666666 0.708328 0
0.624999 0.66666 0
0.624999 0.708328 0
0.666666 0.708328 0
0.666666 0.749995 0
0.624999 0.708328 0
0.624999 0.749995 0
0.624999 0.708328 0
0.624999 0.749995 0
0.583333 0.708327 0
0.583333 0.749995 0
0.541667 0.0416655 0
0.541667 0 0
0.583333 0.0416656 0
0.583333 0 0
0.541666 0.0833311 0
0.541667 0.0416655 0
0.583333 0.0833311 0
0.583333 0.0416656 0
0.5 0.0833311 0
0.5 0.0416655 0
0.541666 0.0833311 0
0.541667 0.0416655 0
0.5 0.0416655 0
0.5 0 0
0.541667 0.0416655 0
0.541667 0 0
0.666666 0.374994 0
0.708333 0.374994 0
0.666666 0.41666 0
0.708333 0.41666 0
0.333333 0.333327 0
0.333332 0.374993 0
0.291666 0.333328 0
0.291666 0.374994 0
0.333332 0.374993 0
0.333332 0.41666 0
0.291666 0.374994 0
0.291666 0.41666 0
0.791666 0.70833 0
0.791666 0.749997 0
0.749999 0.708329 0
0.749999 0.749996 0
0.791666 0.666663 0
0.791666 0.70833 0
0.749999 0.666662 0
0.749999 0.708329 0
0.666666 0.458327 0
0.624999 0.458326 0
0.666666 0.41666 0
0.624999 0.41666 0
0.666666 0.499993 0
0.624999 0.499993 0
0.666666 0.458327 0
0.624999 0.458326 0
0.624999 0.499993 0
0.583332 0.499992 0
0.624999 0.458326 0
0.583332 0.458326 0
0.624999 0.458326 0
0.583332 0.458326 0
0.624999 0.41666 0
0.583332 0.416659 0
0.291666 0.499994 0
0.249999 0.499994 0
0.291666 0.458327 0
0.249999 0.458327 0
0.291666 0.458327 0
0.249999 0.458327 0
0.291666 0.41666 0
0.249999 0.416661 0
0.333332 0.458326 0
0.291666 0.458327 0
0.333332 0.41666 0
0.291666 0.41666 0
0.333332 0.499993 0
0.291666 0.499994 0
0.333332 0.458326 0
0.291666 0.458327 0
0.708333 0.666661 0
0.749999 0.666662 0
0.708333 0.708328 0
0.749999 0.708329 0
0.708333 0.708328 0
0.749999 0.708329 0
0.708333 0.749996 0
0.749999 0.749996 0
0.666666 0.708328 0
0.708333 0.708328 0
0.666666 0.749995 0
0.708333 0.749996 0
0.666666 0.666661 0
0.708333 0.666661 0
0.666666 0.708328 0
0.708333 0.708328 0
0.374999 0.749995 0
0.374999 0.791662 0
0.333333 0.749995 0
0.333333 0.791662 0
0.416666 0.749994 0
0.416666 0.791662 0
0.374999 0.749995 0
0.374999 0.791662 0
0.791666 0.541662 0
0.791666 0.583329 0
0.749999 0.541661 0
0.749999 0.583328 0
0.416666 0.0833311 0
0.375 0.0833312 0
0.416667 0.0416656 0
0.375 0.0416656 0
0.375 0.0833312 0
0.333333 0.0833314 0
0.375 0.0416656 0
0.333333 0.0416657 0
0.375 0.0416656 0
0.333333 0.0416657 0
0.375 0 0
0.333333 0 0
0.416667 0.0416656 0
0.375 0.0416656 0
0.416667 0 0
0.375 0 0
0.416666 0.749994 0
0.458333 0.749994 0
0.416666 0.791662 0
0.458333 0.791662 0
0.458333 0.749994 0
0.499999 0.749994 0
0.458333 0.791662 0
0.499999 0.791662 0
0.458333 0.791662 0
0.499999 0.791662 0
0.458333 0.833329 0
0.499999 0.833329 0
0.416666 0.791662 0
0.458333 0.791662 0
0.416666 0.833329 0
0.458333 0.833329 0
0.666666 0.624994 0
0.708333 0.624994 0
0.666666 0.666661 0
0.708333 0.666661 0
0.666666 0.583327 0
0.708333 0.583327 0
0.666666 0.624994 0
0.708333 0.624994 0
0.708333 0.583327 0
0.749999 0.583328 0
0.708333 0.624994 0
0.749999 0.624995 0
0.708333 0.624994 0
0.749999 0.624995 0
0.708333 0.666661 0
0.749999 0.666662 0
0.791666 0.624996 0
0.791666 0.666663 0
0.749999 0.624995 0
0.749999 0.666662 0
0.791666 0.583329 0
0.791666 0.624996 0
0.749999 0.583328 0
0.749999 0.624995 0
0.374999 0.499993 0
0.333332 0.499993 0
0.374999 0.458326 0
0.333332 0.458326 0
0.374999 0.458326 0
0.333332 0.458326 0
0.374999 0.416659 0
0.333332 0.41666 0
0.416666 0.458326 0
0.374999 0.458326 0
0.416666 0.416659 0
0.374999 0.416659 0
0.416666 0.499992 0
0.374999 0.499993 0
0.416666 0.458326 0
0.374999 0.458326 0
0.624999 0.54166 0
0.624999 0.583326 0
0.583332 0.541659 0
0.583332 0.583326 0
0.624999 0.499993 0
0.624999 0.54166 0
0.583332 0.499992 0
0.583332 0.541659 0
0.666666 0.499993 0
0.666666 0.54166 0
0.624999 0.499993 0
0.624999 0.54166 0
0.666666 0.54166 0
0.666666 0.583327 0
0.624999 0.54166 0
0.624999 0.583326 0
0.624999 0.333327 0
0.624999 0.374993 0
0.583332 0.333327 0
0.583332 0.374993 0
0.666666 0.333327 0
0.666666 0.374994 0
0.624999 0.333327 0
0.624999 0.374993 0
0.666666 0.374994 0
0.666666 0.41666 0
0.624999 0.374993 0
0.624999 0.41666 0
0.624999 0.374993 0
0.624999 0.41666 0
0.583332 0.374993 0
0.583332 0.416659 0
0.416666 0.499992 0
0.416666 0.541659 0
0.374999 0.499993 0
0.374999 0.541659 0
0.416666 0.541659 0
0.416666 0.583326 0
0.374999 0.541659 0
0.374999 0.583326 0
0.374999 0.541659 0
0.374999 0.583326 0
0.333332 0.54166 0
0.333332 0.583326 0
0.374999 0.499993 0
0.374999 0.541659 0
0.333332 0.499993 0
0.333332 0.54166 0
0.624999 0.333327 0
0.583332 0.333327 0
0.624999 0.291661 0
0.583333 0.29166 0
0.416666 0.624993 0
0.416666 0.66666 0
0.374999 0.624993 0
0.374999 0.66666 0
0.374999 0.624993 0
0.374999 0.66666 0
0.333332 0.624994 0
0.333333 0.666661 0
0.374999 0.583326 0
0.374999 0.624993 0
0.333332 0.583326 0
0.333332 0.624994 0
0.416666 0.583326 0
0.416666 0.624993 0
0.374999 0.583326 0
0.374999 0.624993 0
0.666666 0.54166 0
0.708333 0.541661 0
0.666666 0.583327 0
0.708333 0.583327 0
0.666666 0.499993 0
0.708332 0.499994 0
0.666666 0.54166 0
0.708333 0.541661 0
0.708332 0.499994 0
0.749999 0.499994 0
0.708333 0.541661 0
0.749999 0.541661 0
0.708333 0.541661 0
0.749999 0.541661 0
0.708333 0.583327 0
0.749999 0.583328 0
0.458332 0.333326 0
0.458332 0.29166 0
0.499999 0.333326 0
0.499999 0.29166 0
0.416666 0.333327 0
0.416666 0.29166 0
0.458332 0.333326 0
0.458332 0.29166 0
0.416666 0.708327 0
0.416666 0.749994 0
0.374999 0.708328 0
0.374999 0.749995 0
0.374999 0.708328 0
0.374999 0.749995 0
0.333333 0.708328 0
[...]
POINT_DATA 14964
SCALARS solution_0 double 1
LOOKUP_TABLE default
-0.0225281 -0.0263907 0.016412 0.0127198 -0.0191949 -0.0225281 0.0194244 0.016412 -0.0572746 -0.0606759 -0.0191949 -0.0225281 -0.0606759 -0.0645334 -0.0225281 -0.0263907 0.0485676 0.0424833 0.090984 0.0845634 0.053169 0.0485676 0.095472 0.090984 0.0127198 0.00811248 0.053169 0.0485676 0.00811248 0.00241141 0.0485676 0.0424833 -0.0263907 -0.0309085 0.0127198 0.00811248 -0.0645334 -0.0688316 -0.0263907 -0.0309085 -0.0688316 -0.0735283 -0.0309085 -0.0361562 -0.0309085 -0.0361562 0.00811248 0.00241141 -0.102019 -0.139544 -0.105897 -0.142775 -0.105897 -0.142775 -0.109937 -0.146195 -0.0688316 -0.105897 -0.0735283 -0.109937 -0.0645334 -0.102019 -0.0688316 -0.105897 -0.178732 -0.181286 -0.139544 -0.142775 -0.22165 -0.223992 -0.178732 -0.181286 -0.223992 -0.227465 -0.181286 -0.18444 -0.181286 -0.18444 -0.142775 -0.146195 -0.0606759 -0.0984582 -0.0645334 -0.102019 -0.0572746 -0.0953624 -0.0606759 -0.0984582 -0.0953624 -0.134312 -0.0984582 -0.136666 -0.0984582 -0.136666 -0.102019 -0.139544 -0.223992 -0.270618 -0.227465 -0.274649 -0.22165 -0.267752 -0.223992 -0.270618 -0.123023 -0.160173 -0.130068 -0.169277 -0.0888322 -0.123023 -0.0951495 -0.130068 -0.083578 -0.118126 -0.0888322 -0.123023 -0.118126 -0.154134 -0.123023 -0.160173 0.0194244 0.016412 0.059025 0.0565551 0.016412 0.0127198 0.0565551 0.053169 0.0565551 0.053169 0.0983607 0.095472 0.059025 0.0565551 0.0999446 0.0983607 0.142067 0.140036 0.187094 0.186568 0.142146 0.142067 0.184671 0.187094 0.0999446 0.0983607 0.142146 0.142067 0.0983607 0.095472 0.142067 0.140036 -0.220072 -0.22165 -0.176744 -0.178732 -0.176744 -0.178732 -0.136666 -0.139544 -0.175271 -0.176744 -0.134312 -0.136666 -0.218729 -0.220072 -0.175271 -0.176744 -0.173864 -0.132424 -0.17111 -0.130323 -0.216477 -0.173864 -0.211108 -0.17111 -0.218729 -0.175271 -0.216477 -0.173864 -0.175271 -0.134312 -0.173864 -0.132424 0.111712 0.151386 0.145683 0.187814 0.0776125 0.111712 0.106772 0.145683 0.0610925 0.0958431 0.0587392 0.0899793 0.0251115 0.0610925 0.0253746 0.0587392 0.0239286 0.0616372 0.0251115 0.0610925 0.0616372 0.0991632 0.0610925 0.0958431 -0.218729 -0.216477 -0.262257 -0.25654 -0.216477 -0.211108 -0.25654 -0.246369 0.075916 0.119528 0.0845634 0.129136 0.0648131 0.106633 0.075916 0.119528 0.106633 0.150756 0.119528 0.165583 0.119528 0.165583 0.129136 0.176174 -0.0906009 0 -0.0800062 0 -0.169718 -0.0906009 -0.154074 -0.0800062 -0.175768 -0.0943652 -0.169718 -0.0906009 -0.0943652 0 -0.0906009 0 -0.194106 -0.201834 -0.154134 -0.160173 -0.211108 -0.17111 -0.200829 -0.164822 -0.17111 -0.130323 -0.164822 -0.126212 0.0461162 0.0776125 0.0699247 0.106772 0.0161314 0.0461162 0.0349158 0.0699247 -0.118126 -0.114013 -0.154134 -0.149805 -0.083578 -0.0785003 -0.118126 -0.114013 -0.0785003 -0.0735283 -0.114013 -0.109937 -0.114013 -0.109937 -0.149805 -0.146195 -0.0491102 -0.0454193 -0.0873618 -0.0819755 -0.0873618 -0.0819755 -0.126212 -0.118556 -0.0904587 -0.0873618 -0.130323 -0.126212 -0.0517539 -0.0491102 -0.0904587 -0.0873618 0.0511314 0.0349158 0.0901383 0.0699247 0.0901383 0.0699247 0.131231 0.106772 0.106633 0.0901383 0.150756 0.131231 0.0648131 0.0511314 0.106633 0.0901383 0.179033 0.214859 0.169931 0.199958 0.184671 0.225224 0.179033 0.214859 -0.0723057 -0.042261 -0.0627664 -0.0308713 -0.161016 -0.142026 -0.0820125 -0.0688731 -0.142026 -0.117894 -0.0688731 -0.0536168 -0.0688731 -0.0536168 0 0 -0.0820125 -0.0688731 0 0 0.184671 0.187094 0.225224 0.231377 0.187094 0.186568 0.231377 0.233337 0.231377 0.233337 0.271919 0.277051 0.225224 0.231377 0.261223 0.271919 0.0252654 0.0141219 0.0648131 0.0511314 -0.0123916 -0.0212133 0.0252654 0.0141219 -0.0212133 -0.0308713 0.0141219 0.00147201 0.0141219 0.00147201 0.0511314 0.0349158 -0.0130339 0.0161314 0.00147201 0.0349158 -0.042261 -0.0130339 -0.0308713 0.00147201 -0.0543323 -0.0517539 -0.0927885 -0.0904587 -0.0927885 -0.0904587 -0.132424 -0.130323 -0.0953624 -0.0927885 -0.134312 -0.132424 -0.0572746 -0.0543323 -0.0953624 -0.0927885 -0.0420963 -0.00444766 -0.0361562 0.00241141 -0.0785003 -0.0420963 -0.0735283 -0.0361562 -0.083578 -0.0485521 -0.0785003 -0.0420963 -0.0485521 -0.0123916 -0.0420963 -0.00444766 -0.232413 -0.188542 -0.227465 -0.18444 -0.239064 -0.194106 -0.232413 -0.188542 -0.194106 -0.154134 -0.188542 -0.149805 -0.188542 -0.149805 -0.18444 -0.146195 -0.0572746 -0.0191949 -0.0543323 -0.01629 -0.0191949 0.0194244 -0.01629 0.021938 -0.01629 0.021938 -0.0137788 0.0239286 -0.0543323 -0.01629 -0.0517539 -0.0137788 -0.232413 -0.227465 -0.27992 -0.274649 0.059025 0.0999446 0.0607573 0.100316 0.0607573 0.100316 0.0616372 0.0991632 0.021938 0.0607573 0.0239286 0.0616372 0.0194244 0.059025 0.021938 0.0607573 -0.0485521 -0.0553236 -0.0123916 -0.0212133 -0.083578 -0.0888322 -0.0485521 -0.0553236 -0.0888322 -0.0951495 -0.0553236 -0.0627664 -0.0553236 -0.0627664 -0.0212133 -0.0308713 -0.220072 -0.265341 -0.22165 -0.267752 -0.218729 -0.262257 -0.220072 -0.265341 0.142146 0.184671 0.140223 0.179033 0.140223 0.179033 0.135805 0.169931 0.100316 0.140223 0.0991632 0.135805 0.0999446 0.142146 0.100316 0.140223 -0.0123916 0.0252654 -0.00444766 0.0347387 0.0252654 0.0648131 0.0347387 0.075916 0.0347387 0.075916 0.0424833 0.0845634 -0.00444766 0.0347387 0.00241141 0.0424833 0.095472 0.090984 0.140036 0.135843 0.090984 0.0845634 0.135843 0.129136 0.135843 0.129136 0.183024 0.176174 0.140036 0.135843 0.186568 0.183024 0.135805 0.169931 0.128349 0.157273 0.0991632 0.135805 0.0958431 0.128349 -0.0517539 -0.0137788 -0.0491102 -0.0116478 -0.0137788 0.0239286 -0.0116478 0.0251115 -0.0116478 0.0251115 -0.00951419 0.0253746 -0.0491102 -0.0116478 -0.0454193 -0.00951419 -0.161016 -0.0820125 -0.172679 -0.0912218 -0.0820125 0 -0.0912218 0 -0.0912218 0 -0.0943652 0 -0.172679 -0.0912218 -0.175768 -0.0943652 0.231084 0.224446 0.276825 0.271055 0.233337 0.231084 0.277051 0.276825 0.186568 0.183024 0.233337 0.231084 0.183024 0.176174 0.231084 0.224446 0.21304 0.259541 0.224446 0.271055 0.165583 0.21304 0.176174 0.224446 0.150756 0.19638 0.165583 0.21304 0.19638 0.241958 0.21304 0.259541 0.173998 0.145683 0.218037 0.187814 0.19638 0.173998 0.241958 0.218037 0.150756 0.131231 0.19638 0.173998 0.131231 0.106772 0.173998 0.145683 -0.0280989 -0.0190387 -0.038352 -0.0269638 -0.0190387 -0.0110525 -0.0269638 -0.0167293 -0.038352 -0.0269638 -0.0502495 -0.0364293 -0.0269638 -0.0167293 -0.0364293 -0.0237825 -0.0475638 -0.0377672 -0.0622319 -0.0503058 -0.0377672 -0.0280989 -0.0503058 -0.038352 -0.0622319 -0.0503058 -0.0785407 -0.0645237 -0.0503058 -0.038352 -0.0645237 -0.0502495 -0.02345 -0.0178269 -0.0346255 -0.0269436 -0.0178269 -0.0124621 -0.0269436 -0.0194833 -0.0346255 -0.0269436 -0.0475638 -0.0377672 -0.0269436 -0.0194833 -0.0377672 -0.0280989 -0.0124621 -0.00763407 -0.0194833 -0.0126201 -0.00763407 -0.00360513 -0.0126201 -0.00670922 -0.0194833 -0.0126201 -0.0280989 -0.0190387 -0.0126201 -0.00670922 -0.0190387 -0.0110525 -0.144769 -0.123647 -0.131261 -0.110976 -0.123647 -0.103169 -0.110976 -0.0916242 -0.131261 -0.110976 -0.115244 -0.0963065 -0.110976 -0.0916242 -0.0963065 -0.0785407 -0.187144 -0.166086 -0.172924 -0.152059 -0.166086 -0.144769 -0.152059 -0.131261 -0.172924 -0.152059 -0.155078 -0.134977 -0.152059 -0.131261 -0.134977 -0.115244 -0.20264 -0.182897 -0.197161 -0.176488 -0.182897 -0.162191 -0.176488 -0.155207 -0.197161 -0.176488 -0.187144 -0.166086 -0.176488 -0.155207 -0.166086 -0.144769 -0.162191 -0.140977 -0.155207 -0.133779 -0.140977 -0.119737 -0.133779 -0.112669 -0.155207 -0.133779 -0.144769 -0.123647 -0.133779 -0.112669 -0.123647 -0.103169 0.192812 0.17143 0.193904 0.174866 0.17143 0.148857 0.174866 0.154661 0.193904 0.174866 0.191811 0.175107 0.174866 0.154661 0.175107 0.157256 0.231072 0.212753 0.227661 0.211554 0.212753 0.192812 0.211554 0.193904 0.227661 0.211554 0.221062 0.207167 0.211554 0.193904 0.207167 0.191811 0.231584 0.208747 0.231297 0.210795 0.208747 0.184221 0.210795 0.188606 0.231297 0.210795 0.231072 0.212753 0.210795 0.188606 0.212753 0.192812 0.184221 0.158207 0.188606 0.164927 0.158207 0.130992 0.164927 0.140036 0.188606 0.164927 0.192812 0.17143 0.164927 0.140036 0.17143 0.148857 -0.206907 -0.16957 -0.180847 -0.145066 -0.16957 -0.132858 -0.145066 -0.111028 -0.180847 -0.145066 -0.153305 -0.120199 -0.145066 -0.111028 -0.120199 -0.0895829 -0.251639 -0.214064 -0.230705 -0.192792 -0.214064 -0.174504 -0.192792 -0.154256 -0.230705 -0.192792 -0.206907 -0.16957 -0.192792 -0.154256 -0.16957 -0.132858 -0.174504 -0.135932 -0.154256 -0.117608 -0.135932 -0.100494 -0.117608 -0.0846009 -0.154256 -0.117608 -0.132858 -0.0987986 -0.117608 -0.0846009 -0.0987986 -0.0687119 -0.132858 -0.0987986 -0.111028 -0.0801591 -0.0987986 -0.0687119 -0.0801591 -0.0533863 -0.111028 -0.0801591 -0.0895829 -0.0623689 -0.0801591 -0.0533863 -0.0623689 -0.0391632 -0.267752 -0.290586 -0.269184 -0.292189 -0.290586 -0.310456 -0.292189 -0.312514 -0.269184 -0.292189 -0.270618 -0.294009 -0.292189 -0.312514 -0.294009 -0.314421 -0.270618 -0.294009 -0.272633 -0.295842 -0.294009 -0.314421 -0.295842 -0.316005 -0.272633 -0.295842 -0.274649 -0.298005 -0.295842 -0.316005 -0.298005 -0.317585 -0.0656545 -0.0570105 -0.0837344 -0.0735528 -0.0570105 -0.0475638 -0.0735528 -0.0622319 -0.0837344 -0.0735528 -0.103169 -0.0916242 -0.0735528 -0.0622319 -0.0916242 -0.0785407 -0.0789975 -0.0730931 -0.0989389 -0.0923182 -0.0730931 -0.0656545 -0.0923182 -0.0837344 -0.0989389 -0.0923182 -0.119737 -0.112669 -0.0923182 -0.0837344 -0.112669 -0.103169 -0.0429009 -0.0390186 -0.0602372 -0.0552647 -0.0390186 -0.034322 -0.0552647 -0.0491393 -0.0602372 -0.0552647 -0.0789975 -0.0730931 -0.0552647 -0.0491393 -0.0730931 -0.0656545 -0.034322 -0.0290435 -0.0491393 -0.0421472 -0.0290435 -0.02345 -0.0421472 -0.0346255 -0.0491393 -0.0421472 -0.0656545 -0.0570105 -0.0421472 -0.0346255 -0.0570105 -0.0475638 -0.0819755 -0.0779575 -0.100266 -0.0955154 -0.0779575 -0.0730403 -0.0955154 -0.0892378 -0.100266 -0.0955154 -0.118556 -0.112442 -0.0955154 -0.0892378 -0.112442 -0.104888 -0.0454193 -0.0428821 -0.0636974 -0.0604885 -0.0428821 -0.0399736 -0.0604885 -0.0565377 -0.0636974 -0.0604885 -0.0819755 -0.0779575 -0.0604885 -0.0565377 -0.0779575 -0.0730403 -0.0399736 -0.0363044 -0.0565377 -0.0516483 -0.0363044 -0.031906 -0.0516483 -0.0457884 -0.0565377 -0.0516483 -0.0730403 -0.0668114 -0.0516483 -0.0457884 -0.0668114 -0.0594242 -0.0730403 -0.0668114 -0.0892378 -0.0815807 -0.0668114 -0.0594242 -0.0815807 -0.0725819 -0.0892378 -0.0815807 -0.104888 -0.095677 -0.0815807 -0.0725819 -0.095677 -0.0849944 0.130992 0.10297 0.140036 0.114309 0.10297 0.0746738 0.114309 0.0882485 0.140036 0.114309 0.148857 0.125429 0.114309 0.0882485 0.125429 0.101585 0.0746738 0.04681 0.0882485 0.0625219 0.04681 0.0202934 0.0625219 0.0379918 0.0882485 0.0625219 0.101585 0.077898 0.0625219 0.0379918 0.077898 0.055108 0.101585 0.077898 0.111971 0.0903061 0.077898 0.055108 0.0903061 0.0691646 0.111971 0.0903061 0.119105 0.0994444 0.0903061 0.0691646 0.0994444 0.0799301 0.148857 0.125429 0.154661 0.133575 0.125429 0.101585 0.133575 0.111971 0.154661 0.133575 0.157256 0.138491 0.133575 0.111971 0.138491 0.119105 0 0 -0.00270938 -0.000740047 0 0 -0.000740047 0.000430112 -0.00270938 -0.000740047 -0.00768068 -0.00143012 -0.000740047 0.000430112 -0.00143012 0.00256476 -0.00768068 -0.00143012 -0.00978515 0.000476941 -0.00143012 0.00256476 0.000476941 0.00757755 -0.00978515 0.000476941 -0.00650858 0.00645628 0.000476941 0.00757755 0.00645628 0.0161938 -0.0417557 -0.051415 -0.0510013 -0.0624362 -0.051415 -0.0603304 -0.0624362 -0.0731007 -0.0510013 -0.0624362 -0.0594242 -0.0725819 -0.0624362 -0.0731007 -0.0725819 -0.0849944 -0.0210961 -0.0315795 -0.0268005 -0.0390478 -0.0315795 -0.0417557 -0.0390478 -0.0510013 -0.0268005 -0.0390478 -0.031906 -0.0457884 -0.0390478 -0.0510013 -0.0457884 -0.0594242 -0.00905475 -0.0157129 -0.0150276 -0.0236477 -0.0157129 -0.022163 -0.0236477 -0.0319877 -0.0150276 -0.0236477 -0.0210961 -0.0315795 -0.0236477 -0.0319877 -0.0315795 -0.0417557 -0.022163 -0.0282441 -0.0319877 -0.0398596 -0.0282441 -0.0337926 -0.0398596 -0.0470662 -0.0319877 -0.0398596 -0.0417557 -0.051415 -0.0398596 -0.0470662 -0.051415 -0.0603304 0.262414 0.247651 0.254892 0.242133 0.247651 0.231072 0.242133 0.227661 0.254892 0.242133 0.244128 0.233409 0.242133 0.227661 0.233409 0.221062 0.286347 0.275307 0.275146 0.265907 0.275307 0.262414 0.265907 0.254892 0.275146 0.265907 0.261223 0.253311 0.265907 0.254892 0.253311 0.244128 0.304158 0.288903 0.294518 0.281615 0.288903 0.271718 0.281615 0.266768 0.294518 0.281615 0.286347 0.275307 0.281615 0.266768 0.275307 0.262414 0.271718 0.2526 0.266768 0.249982 0.2526 0.231584 0.249982 0.231297 0.266768 0.249982 0.262414 0.247651 0.249982 0.231297 0.247651 0.231072 0.0451461 0.0590534 0.0618263 0.0771727 0.0590534 0.0740927 0.0771727 0.0935111 0.0618263 0.0771727 0.0776125 0.0946624 0.0771727 0.0935111 0.0946624 0.111712 0.0740927 0.0910368 0.0935111 0.11141 0.0910368 0.110937 0.11141 0.131763 0.0935111 0.11141 0.111712 0.131549 0.11141 0.131763 0.131549 0.151386 -0.25654 -0.251454 -0.272816 -0.26638 -0.251454 -0.246369 -0.26638 -0.257889 -0.272816 -0.26638 -0.284697 -0.275889 -0.26638 -0.257889 -0.275889 -0.26521 -0.262257 -0.259398 -0.28171 -0.277944 -0.259398 -0.25654 -0.277944 -0.272816 -0.28171 -0.277944 -0.297335 -0.291725 -0.277944 -0.272816 -0.291725 -0.284697 -0.10674 -0.0933803 -0.0986318 -0.0835636 -0.0933803 -0.0803809 -0.0835636 -0.0692744 -0.0986318 -0.0835636 -0.0885043 -0.0729986 -0.0835636 -0.0692744 -0.0729986 -0.0582375 -0.133303 -0.120025 -0.1304 -0.11423 -0.120025 -0.10674 -0.11423 -0.0986318 -0.1304 -0.11423 -0.122203 -0.104938 -0.11423 -0.0986318 -0.104938 -0.0885043 -0.00306511 -0.00158292 -0.00699148 -0.00398696 -0.00158292 -0.000464424 -0.00398696 -0.00158517 -0.00699148 -0.00398696 -0.0124621 -0.00763407 -0.00398696 -0.00158517 -0.00763407 -0.00360513 -0.00671199 -0.00480766 -0.0140867 -0.0104202 -0.00480766 -0.00306511 -0.0104202 -0.00699148 -0.0140867 -0.0104202 -0.02345 -0.0178269 -0.0104202 -0.00699148 -0.0178269 -0.0124621 0 0 -0.00173934 -0.0012007 0 0 -0.0012007 -0.000718218 -0.00173934 -0.0012007 -0.00671199 -0.00480766 -0.0012007 -0.000718218 -0.00480766 -0.00306511 0 0 -0.000718218 -0.000319602 0 0 -0.000319602 -3.53014e-05 -0.000718218 -0.000319602 -0.00306511 -0.00158292 -0.000319602 -3.53014e-05 -0.00158292 -0.000464424 -0.00650858 0.00645628 0.00218811 0.0169894 0.00645628 0.0161938 0.0169894 0.0284018 0.00218811 0.0169894 0.016115 0.031569 0.0169894 0.0284018 0.031569 0.0436508 0.016115 0.031569 0.0341456 0.0492869 0.031569 0.0436508 0.0492869 0.0611019 0.0341456 0.0492869 0.055108 0.0691646 0.0492869 0.0611019 0.0691646 0.0799301 -0.0238316 -0.00293851 -0.00372334 0.0157415 -0.00293851 0.016115 0.0157415 0.0341456 -0.00372334 0.0157415 0.0202934 0.0379918 0.0157415 0.0341456 0.0379918 0.055108 -0.0455077 -0.0238805 -0.0384167 -0.0166248 -0.0238805 -0.00650858 -0.0166248 0.00218811 -0.0384167 -0.0166248 -0.0238316 -0.00293851 -0.0166248 0.00218811 -0.00293851 0.016115 -0.0158584 -0.030635 -0.0151103 -0.0293945 -0.030635 -0.0474383 -0.0293945 -0.045587 -0.0151103 -0.0293945 -0.0137922 -0.0272211 -0.0293945 -0.045587 -0.0272211 -0.0426094 -0.239064 -0.244234 -0.216585 -0.220221 -0.244234 -0.249346 -0.220221 -0.225591 -0.216585 -0.220221 -0.194106 -0.19797 -0.220221 -0.225591 -0.19797 -0.201834 -0.249346 -0.254033 -0.225591 -0.231385 -0.254033 -0.257241 -0.231385 -0.236794 -0.225591 -0.231385 -0.201834 -0.207972 -0.231385 -0.236794 -0.207972 -0.214386 -0.201834 -0.207972 -0.181003 -0.18525 -0.207972 -0.214386 -0.18525 -0.191647 -0.181003 -0.18525 -0.160173 -0.164725 -0.18525 -0.191647 -0.164725 -0.169277 -0.272314 -0.24228 -0.248116 -0.216156 -0.24228 -0.206907 -0.216156 -0.180847 -0.248116 -0.216156 -0.220064 -0.187375 -0.216156 -0.180847 -0.187375 -0.153305 -0.164822 -0.145517 -0.159485 -0.141569 -0.145517 -0.126212 -0.141569 -0.122384 -0.159485 -0.141569 -0.152878 -0.136115 -0.141569 -0.122384 -0.136115 -0.118556 -0.200829 -0.182826 -0.192415 -0.176904 -0.182826 -0.164822 -0.176904 -0.159485 -0.192415 -0.176904 -0.181895 -0.168419 -0.176904 -0.159485 -0.168419 -0.152878 -0.251639 -0.269338 -0.214064 -0.232846 -0.269338 -0.283716 -0.232846 -0.248809 -0.214064 -0.232846 -0.174504 -0.193012 -0.232846 -0.248809 -0.193012 -0.209315 -0.283716 -0.294883 -0.248809 -0.26182 -0.294883 -0.303064 -0.26182 -0.271882 -0.248809 -0.26182 -0.209315 -0.223097 -0.26182 -0.271882 -0.223097 -0.234244 -0.209315 -0.223097 -0.168851 -0.182461 -0.223097 -0.234244 -0.182461 -0.193755 -0.168851 -0.182461 -0.130208 -0.143151 -0.182461 -0.193755 -0.143151 -0.154074 -0.174504 -0.193012 -0.135932 -0.153179 -0.193012 -0.209315 -0.153179 -0.168851 -0.135932 -0.153179 -0.100494 -0.115853 -0.153179 -0.168851 -0.115853 -0.130208 0 0 -3.53014e-05 8.3753e-05 0 0 8.3753e-05 -2.93912e-05 -3.53014e-05 8.3753e-05 -0.000464424 0.000171544 8.3753e-05 -2.93912e-05 0.000171544 8.87725e-05 0 0 -2.93912e-05 -0.00123217 0 0 -0.00123217 0 -2.93912e-05 -0.00123217 8.87725e-05 -0.000417294 -0.00123217 0 -0.000417294 0 8.87725e-05 -0.000417294 0.000755077 0.000676436 -0.000417294 0 0.000676436 0 0.000755077 0.000676436 0.00115868 0.00151519 0.000676436 0 0.00151519 0 -0.000464424 0.000171544 -0.00158517 2.93204e-05 0.000171544 8.87725e-05 2.93204e-05 0.000755077 -0.00158517 2.93204e-05 -0.00360513 -0.00060802 2.93204e-05 0.000755077 -0.00060802 0.00115868 -0.0510578 -0.0693495 -0.031756 -0.0460597 -0.0693495 -0.0895829 -0.0460597 -0.0623689 -0.031756 -0.0460597 -0.0158068 -0.0265148 -0.0460597 -0.0623689 -0.0265148 -0.0391632 -0.0223851 -0.0352812 -0.0104924 -0.0198338 -0.0352812 -0.0510578 -0.0198338 -0.031756 -0.0104924 -0.0198338 -0.000992731 -0.00727171 -0.0198338 -0.031756 -0.00727171 -0.0158068 -0.0526208 -0.0740911 -0.0364208 -0.053373 -0.0740911 -0.0987166 -0.053373 -0.0734358 -0.0364208 -0.053373 -0.0223851 -0.0352812 -0.053373 -0.0734358 -0.0352812 -0.0510578 -0.0987166 -0.125515 -0.0734358 -0.0959934 -0.125515 -0.153305 -0.0959934 -0.120199 -0.0734358 -0.0959934 -0.0510578 -0.0693495 -0.0959934 -0.120199 -0.0693495 -0.0895829 -0.10449 -0.14388 -0.0872392 -0.123606 -0.14388 -0.183585 -0.123606 -0.162261 -0.0872392 -0.123606 -0.070448 -0.102836 -0.123606 -0.162261 -0.102836 -0.138832 -0.0597993 -0.0963514 -0.0497104 -0.0827948 -0.0963514 -0.137573 -0.0827948 -0.121606 -0.0497104 -0.0827948 -0.0400173 -0.0687756 -0.0827948 -0.121606 -0.0687756 -0.10449 0.207313 0.22412 0.176251 0.194676 0.22412 0.239593 0.194676 0.211351 0.176251 0.194676 0.151386 0.1696 0.194676 0.211351 0.1696 0.187814 0.168982 0.189077 0.135952 0.156798 0.189077 0.207313 0.156798 0.176251 0.135952 0.156798 0.110937 0.131763 0.156798 0.176251 0.131763 0.151386 -0.20003 -0.183425 -0.203513 -0.185174 -0.183425 -0.165217 -0.185174 -0.165524 -0.203513 -0.185174 -0.20264 -0.182897 -0.185174 -0.165524 -0.182897 -0.162191 -0.181895 -0.169209 -0.192597 -0.177945 -0.169209 -0.154575 -0.177945 -0.161453 -0.192597 -0.177945 -0.20003 -0.183425 -0.177945 -0.161453 -0.183425 -0.165217 -0.154575 -0.138284 -0.161453 -0.143501 -0.138284 -0.120745 -0.143501 -0.124538 -0.161453 -0.143501 -0.165217 -0.145821 -0.143501 -0.124538 -0.145821 -0.125712 -0.165217 -0.145821 -0.165524 -0.145011 -0.145821 -0.125712 -0.145011 -0.12412 -0.165524 -0.145011 -0.162191 -0.140977 -0.145011 -0.12412 -0.140977 -0.119737 -0.00567009 0.00679469 0.00573451 0.0194562 0.00679469 0.019297 0.0194562 0.0331435 0.00573451 0.0194562 0.0161314 0.0311238 0.0194562 0.0331435 0.0311238 0.0461162 0.019297 0.03201 0.0331435 0.0473339 0.03201 0.0451461 0.0473339 0.0618263 0.0331435 0.0473339 0.0461162 0.0618644 0.0473339 0.0618263 0.0618644 0.0776125 0.000666527 0.00253132 -0.000439196 0.00115175 0.00253132 0.00473413 0.00115175 0.0028537 -0.000439196 0.00115175 0 0 0.00115175 0.0028537 0 0 0 3.3229e-05 0 -0.00141166 3.3229e-05 0.000666527 -0.00141166 -0.000439196 0 -0.00141166 0 0 -0.00141166 -0.000439196 0 0 0 0.000538333 0 0.000403715 0.000538333 0.0018664 0.000403715 0.00160303 0 0.000403715 0 3.3