# vtk DataFile Version 3.0
#This file was generated by the deal.II library on 2020/12/25 at 16:51:12
ASCII
DATASET UNSTRUCTURED_GRID

POINTS 51156 double
0.458332 0.541659 0
0.499999 0.541659 0
0.458332 0.583326 0
0.499999 0.583326 0
0.416666 0.541659 0
0.458332 0.541659 0
0.416666 0.583326 0
0.458332 0.583326 0
0.416666 0.499992 0
0.458332 0.499992 0
0.416666 0.541659 0
0.458332 0.541659 0
0.458332 0.499992 0
0.499999 0.499992 0
0.458332 0.541659 0
0.499999 0.541659 0
0.541666 0.624993 0
0.583332 0.624993 0
0.541666 0.66666 0
0.583332 0.66666 0
0.499999 0.624993 0
0.541666 0.624993 0
0.499999 0.66666 0
0.541666 0.66666 0
0.499999 0.583326 0
0.541666 0.583326 0
0.499999 0.624993 0
0.541666 0.624993 0
0.541666 0.583326 0
0.583332 0.583326 0
0.541666 0.624993 0
0.583332 0.624993 0
0.499999 0.541659 0
0.541666 0.541659 0
0.499999 0.583326 0
0.541666 0.583326 0
0.499999 0.499992 0
0.541666 0.499992 0
0.499999 0.541659 0
0.541666 0.541659 0
0.541666 0.499992 0
0.583332 0.499992 0
0.541666 0.541659 0
0.583332 0.541659 0
0.541666 0.541659 0
0.583332 0.541659 0
0.541666 0.583326 0
0.583332 0.583326 0
0.499999 0.458326 0
0.499999 0.416659 0
0.541666 0.458326 0
0.541666 0.416659 0
0.541666 0.458326 0
0.541666 0.416659 0
0.583332 0.458326 0
0.583332 0.416659 0
0.541666 0.499992 0
0.541666 0.458326 0
0.583332 0.499992 0
0.583332 0.458326 0
0.499999 0.499992 0
0.499999 0.458326 0
0.541666 0.499992 0
0.541666 0.458326 0
0.499999 0.374993 0
0.541666 0.374993 0
0.499999 0.416659 0
0.541666 0.416659 0
0.499999 0.333326 0
0.541666 0.333326 0
0.499999 0.374993 0
0.541666 0.374993 0
0.541666 0.333326 0
0.583332 0.333327 0
0.541666 0.374993 0
0.583332 0.374993 0
0.541666 0.374993 0
0.583332 0.374993 0
0.541666 0.416659 0
0.583332 0.416659 0
0.458332 0.499992 0
0.458332 0.458326 0
0.499999 0.499992 0
0.499999 0.458326 0
0.416666 0.499992 0
0.416666 0.458326 0
0.458332 0.499992 0
0.458332 0.458326 0
0.416666 0.458326 0
0.416666 0.416659 0
0.458332 0.458326 0
0.458332 0.416659 0
0.458332 0.458326 0
0.458332 0.416659 0
0.499999 0.458326 0
0.499999 0.416659 0
0.541666 0.333326 0
0.541666 0.29166 0
0.583332 0.333327 0
0.583333 0.29166 0
0.499999 0.333326 0
0.499999 0.29166 0
0.541666 0.333326 0
0.541666 0.29166 0
0.708333 0.458327 0
0.708333 0.41666 0
0.749999 0.458328 0
0.749999 0.416661 0
0.708332 0.499994 0
0.708333 0.458327 0
0.749999 0.499994 0
0.749999 0.458328 0
0.666666 0.499993 0
0.666666 0.458327 0
0.708332 0.499994 0
0.708333 0.458327 0
0.666666 0.458327 0
0.666666 0.41666 0
0.708333 0.458327 0
0.708333 0.41666 0
0.416666 0.583326 0
0.458332 0.583326 0
0.416666 0.624993 0
0.458332 0.624993 0
0.458332 0.583326 0
0.499999 0.583326 0
0.458332 0.624993 0
0.499999 0.624993 0
0.458332 0.624993 0
0.499999 0.624993 0
0.458332 0.66666 0
0.499999 0.66666 0
0.416666 0.624993 0
0.458332 0.624993 0
0.416666 0.66666 0
0.458332 0.66666 0
0.458333 0.708327 0
0.499999 0.708327 0
0.458333 0.749994 0
0.499999 0.749994 0
0.416666 0.708327 0
0.458333 0.708327 0
0.416666 0.749994 0
0.458333 0.749994 0
0.416666 0.66666 0
0.458332 0.66666 0
0.416666 0.708327 0
0.458333 0.708327 0
0.458332 0.66666 0
0.499999 0.66666 0
0.458333 0.708327 0
0.499999 0.708327 0
0.458332 0.333326 0
0.499999 0.333326 0
0.458332 0.374993 0
0.499999 0.374993 0
0.458332 0.374993 0
0.499999 0.374993 0
0.458332 0.416659 0
0.499999 0.416659 0
0.416666 0.374993 0
0.458332 0.374993 0
0.416666 0.416659 0
0.458332 0.416659 0
0.416666 0.333327 0
0.458332 0.333326 0
0.416666 0.374993 0
0.458332 0.374993 0
0.374999 0.374993 0
0.374999 0.416659 0
0.333332 0.374993 0
0.333332 0.41666 0
0.374999 0.333327 0
0.374999 0.374993 0
0.333333 0.333327 0
0.333332 0.374993 0
0.416666 0.333327 0
0.416666 0.374993 0
0.374999 0.333327 0
0.374999 0.374993 0
0.416666 0.374993 0
0.416666 0.416659 0
0.374999 0.374993 0
0.374999 0.416659 0
0.791666 0.791664 0
0.791666 0.833331 0
0.75 0.791663 0
0.75 0.83333 0
0.791666 0.749997 0
0.791666 0.791664 0
0.749999 0.749996 0
0.75 0.791663 0
0.291666 0.624994 0
0.291666 0.666661 0
0.249999 0.624995 0
0.249999 0.666662 0
0.291666 0.583327 0
0.291666 0.624994 0
0.249999 0.583328 0
0.249999 0.624995 0
0.333332 0.583326 0
0.333332 0.624994 0
0.291666 0.583327 0
0.291666 0.624994 0
0.333332 0.624994 0
0.333333 0.666661 0
0.291666 0.624994 0
0.291666 0.666661 0
0.416666 0.333327 0
0.374999 0.333327 0
0.416666 0.29166 0
0.374999 0.291661 0
0.374999 0.333327 0
0.333333 0.333327 0
0.374999 0.291661 0
0.333333 0.291661 0
0.624999 0.66666 0
0.624999 0.708328 0
0.583332 0.66666 0
0.583333 0.708327 0
0.666666 0.666661 0
0.666666 0.708328 0
0.624999 0.66666 0
0.624999 0.708328 0
0.666666 0.708328 0
0.666666 0.749995 0
0.624999 0.708328 0
0.624999 0.749995 0
0.624999 0.708328 0
0.624999 0.749995 0
0.583333 0.708327 0
0.583333 0.749995 0
0.541667 0.0416655 0
0.541667 0 0
0.583333 0.0416656 0
0.583333 0 0
0.541666 0.0833311 0
0.541667 0.0416655 0
0.583333 0.0833311 0
0.583333 0.0416656 0
0.5 0.0833311 0
0.5 0.0416655 0
0.541666 0.0833311 0
0.541667 0.0416655 0
0.5 0.0416655 0
0.5 0 0
0.541667 0.0416655 0
0.541667 0 0
0.666666 0.374994 0
0.708333 0.374994 0
0.666666 0.41666 0
0.708333 0.41666 0
0.333333 0.333327 0
0.333332 0.374993 0
0.291666 0.333328 0
0.291666 0.374994 0
0.333332 0.374993 0
0.333332 0.41666 0
0.291666 0.374994 0
0.291666 0.41666 0
0.791666 0.70833 0
0.791666 0.749997 0
0.749999 0.708329 0
0.749999 0.749996 0
0.791666 0.666663 0
0.791666 0.70833 0
0.749999 0.666662 0
0.749999 0.708329 0
0.666666 0.458327 0
0.624999 0.458326 0
0.666666 0.41666 0
0.624999 0.41666 0
0.666666 0.499993 0
0.624999 0.499993 0
0.666666 0.458327 0
0.624999 0.458326 0
0.624999 0.499993 0
0.583332 0.499992 0
0.624999 0.458326 0
0.583332 0.458326 0
0.624999 0.458326 0
0.583332 0.458326 0
0.624999 0.41666 0
0.583332 0.416659 0
0.291666 0.499994 0
0.249999 0.499994 0
0.291666 0.458327 0
0.249999 0.458327 0
0.291666 0.458327 0
0.249999 0.458327 0
0.291666 0.41666 0
0.249999 0.416661 0
0.333332 0.458326 0
0.291666 0.458327 0
0.333332 0.41666 0
0.291666 0.41666 0
0.333332 0.499993 0
0.291666 0.499994 0
0.333332 0.458326 0
0.291666 0.458327 0
0.708333 0.666661 0
0.749999 0.666662 0
0.708333 0.708328 0
0.749999 0.708329 0
0.708333 0.708328 0
0.749999 0.708329 0
0.708333 0.749996 0
0.749999 0.749996 0
0.666666 0.708328 0
0.708333 0.708328 0
0.666666 0.749995 0
0.708333 0.749996 0
0.666666 0.666661 0
0.708333 0.666661 0
0.666666 0.708328 0
0.708333 0.708328 0
0.374999 0.749995 0
0.374999 0.791662 0
0.333333 0.749995 0
0.333333 0.791662 0
0.416666 0.749994 0
0.416666 0.791662 0
0.374999 0.749995 0
0.374999 0.791662 0
0.791666 0.541662 0
0.791666 0.583329 0
0.749999 0.541661 0
0.749999 0.583328 0
0.416666 0.0833311 0
0.375 0.0833312 0
0.416667 0.0416656 0
0.375 0.0416656 0
0.375 0.0833312 0
0.333333 0.0833314 0
0.375 0.0416656 0
0.333333 0.0416657 0
0.375 0.0416656 0
0.333333 0.0416657 0
0.375 0 0
0.333333 0 0
0.416667 0.0416656 0
0.375 0.0416656 0
0.416667 0 0
0.375 0 0
0.416666 0.749994 0
0.458333 0.749994 0
0.416666 0.791662 0
0.458333 0.791662 0
0.458333 0.749994 0
0.499999 0.749994 0
0.458333 0.791662 0
0.499999 0.791662 0
0.458333 0.791662 0
0.499999 0.791662 0
0.458333 0.833329 0
0.499999 0.833329 0
0.416666 0.791662 0
0.458333 0.791662 0
0.416666 0.833329 0
0.458333 0.833329 0
0.666666 0.624994 0
0.708333 0.624994 0
0.666666 0.666661 0
0.708333 0.666661 0
0.666666 0.583327 0
0.708333 0.583327 0
0.666666 0.624994 0
0.708333 0.624994 0
0.708333 0.583327 0
0.749999 0.583328 0
0.708333 0.624994 0
0.749999 0.624995 0
0.708333 0.624994 0
0.749999 0.624995 0
0.708333 0.666661 0
0.749999 0.666662 0
0.791666 0.624996 0
0.791666 0.666663 0
0.749999 0.624995 0
0.749999 0.666662 0
0.791666 0.583329 0
0.791666 0.624996 0
0.749999 0.583328 0
0.749999 0.624995 0
0.374999 0.499993 0
0.333332 0.499993 0
0.374999 0.458326 0
0.333332 0.458326 0
0.374999 0.458326 0
0.333332 0.458326 0
0.374999 0.416659 0
0.333332 0.41666 0
0.416666 0.458326 0
0.374999 0.458326 0
0.416666 0.416659 0
0.374999 0.416659 0
0.416666 0.499992 0
0.374999 0.499993 0
0.416666 0.458326 0
0.374999 0.458326 0
0.624999 0.54166 0
0.624999 0.583326 0
0.583332 0.541659 0
0.583332 0.583326 0
0.624999 0.499993 0
0.624999 0.54166 0
0.583332 0.499992 0
0.583332 0.541659 0
0.666666 0.499993 0
0.666666 0.54166 0
0.624999 0.499993 0
0.624999 0.54166 0
0.666666 0.54166 0
0.666666 0.583327 0
0.624999 0.54166 0
0.624999 0.583326 0
0.624999 0.333327 0
0.624999 0.374993 0
0.583332 0.333327 0
0.583332 0.374993 0
0.666666 0.333327 0
0.666666 0.374994 0
0.624999 0.333327 0
0.624999 0.374993 0
0.666666 0.374994 0
0.666666 0.41666 0
0.624999 0.374993 0
0.624999 0.41666 0
0.624999 0.374993 0
0.624999 0.41666 0
0.583332 0.374993 0
0.583332 0.416659 0
0.416666 0.499992 0
0.416666 0.541659 0
0.374999 0.499993 0
0.374999 0.541659 0
0.416666 0.541659 0
0.416666 0.583326 0
0.374999 0.541659 0
0.374999 0.583326 0
0.374999 0.541659 0
0.374999 0.583326 0
0.333332 0.54166 0
0.333332 0.583326 0
0.374999 0.499993 0
0.374999 0.541659 0
0.333332 0.499993 0
0.333332 0.54166 0
0.624999 0.333327 0
0.583332 0.333327 0
0.624999 0.291661 0
0.583333 0.29166 0
0.416666 0.624993 0
0.416666 0.66666 0
0.374999 0.624993 0
0.374999 0.66666 0
0.374999 0.624993 0
0.374999 0.66666 0
0.333332 0.624994 0
0.333333 0.666661 0
0.374999 0.583326 0
0.374999 0.624993 0
0.333332 0.583326 0
0.333332 0.624994 0
0.416666 0.583326 0
0.416666 0.624993 0
0.374999 0.583326 0
0.374999 0.624993 0
0.666666 0.54166 0
0.708333 0.541661 0
0.666666 0.583327 0
0.708333 0.583327 0
0.666666 0.499993 0
0.708332 0.499994 0
0.666666 0.54166 0
0.708333 0.541661 0
0.708332 0.499994 0
0.749999 0.499994 0
0.708333 0.541661 0
0.749999 0.541661 0
0.708333 0.541661 0
0.749999 0.541661 0
0.708333 0.583327 0
0.749999 0.583328 0
0.458332 0.333326 0
0.458332 0.29166 0
0.499999 0.333326 0
0.499999 0.29166 0
0.416666 0.333327 0
0.416666 0.29166 0
0.458332 0.333326 0
0.458332 0.29166 0
0.416666 0.708327 0
0.416666 0.749994 0
0.374999 0.708328 0
0.374999 0.749995 0
0.374999 0.708328 0
0.374999 0.749995 0
0.333333 0.708328 0
[...]
POINT_DATA 51156
SCALARS solution_0 double 1
LOOKUP_TABLE default
-0.0263979 -0.0303604 0.0153193 0.011604 -0.0229806 -0.0263979 0.0182907 0.0153193 -0.0637191 -0.0673583 -0.0229806 -0.0263979 -0.0673583 -0.0714136 -0.0263979 -0.0303604 0.0501771 0.0438649 0.0955253 0.0889069 0.0548681 0.0501771 0.100054 0.0955253 0.011604 0.00686802 0.0548681 0.0501771 0.00686802 0.000926256 0.0501771 0.0438649 -0.0303604 -0.0350387 0.011604 0.00686802 -0.0714136 -0.0759183 -0.0303604 -0.0350387 -0.0759183 -0.0808737 -0.0350387 -0.0405332 -0.0350387 -0.0405332 0.00686802 0.000926256 -0.111784 -0.151952 -0.115939 -0.155525 -0.115939 -0.155525 -0.120245 -0.159178 -0.0759183 -0.115939 -0.0808737 -0.120245 -0.0714136 -0.111784 -0.0759183 -0.115939 -0.193361 -0.196236 -0.151952 -0.155525 -0.238432 -0.240927 -0.193361 -0.196236 -0.240927 -0.244489 -0.196236 -0.199541 -0.196236 -0.199541 -0.155525 -0.159178 -0.0673583 -0.107894 -0.0714136 -0.111784 -0.0637191 -0.104394 -0.0673583 -0.107894 -0.104394 -0.145775 -0.107894 -0.148629 -0.107894 -0.148629 -0.111784 -0.151952 -0.240927 -0.290718 -0.244489 -0.294945 -0.238432 -0.287888 -0.240927 -0.290718 -0.133504 -0.172599 -0.139903 -0.181034 -0.0969904 -0.133504 -0.103038 -0.139903 -0.091571 -0.1288 -0.0969904 -0.133504 -0.1288 -0.167038 -0.133504 -0.172599 0.0182907 0.0153193 0.0605447 0.058206 0.0153193 0.011604 0.058206 0.0548681 0.058206 0.0548681 0.10284 0.100054 0.0605447 0.058206 0.104261 0.10284 0.14974 0.147817 0.198746 0.198267 0.149704 0.14974 0.196312 0.198746 0.104261 0.10284 0.149704 0.14974 0.10284 0.100054 0.14974 0.147817 -0.236737 -0.238432 -0.190957 -0.193361 -0.190957 -0.193361 -0.148629 -0.151952 -0.189125 -0.190957 -0.145775 -0.148629 -0.235522 -0.236737 -0.189125 -0.190957 -0.18767 -0.143493 -0.18542 -0.141356 -0.233889 -0.18767 -0.229742 -0.18542 -0.235522 -0.189125 -0.233889 -0.18767 -0.189125 -0.145775 -0.18767 -0.143493 0.121266 0.163612 0.157671 0.203399 0.0843479 0.121266 0.115207 0.157671 0.0632054 0.10095 0.0615697 0.0958603 0.0245321 0.0632054 0.0253471 0.0615697 0.0229473 0.0632394 0.0245321 0.0632054 0.0632394 0.103664 0.0632054 0.10095 -0.235522 -0.233889 -0.283519 -0.279139 -0.233889 -0.229742 -0.279139 -0.270534 0.0799195 0.126805 0.0889069 0.136744 0.0683492 0.113411 0.0799195 0.126805 0.113411 0.161295 0.126805 0.176708 0.126805 0.176708 0.136744 0.187664 -0.100915 0 -0.0882875 0 -0.190258 -0.100915 -0.17215 -0.0882875 -0.197599 -0.105735 -0.190258 -0.100915 -0.105735 0 -0.100915 0 -0.208857 -0.216199 -0.167038 -0.172599 -0.229742 -0.18542 -0.220836 -0.180114 -0.18542 -0.141356 -0.180114 -0.137737 0.0501405 0.0843479 0.0751142 0.115207 0.0176043 0.0501405 0.0371577 0.0751142 -0.1288 -0.124565 -0.167038 -0.162871 -0.091571 -0.0861663 -0.1288 -0.124565 -0.0861663 -0.0808737 -0.124565 -0.120245 -0.124565 -0.120245 -0.162871 -0.159178 -0.0547594 -0.0509991 -0.0957256 -0.0906178 -0.0957256 -0.0906178 -0.137737 -0.130686 -0.0987942 -0.0957256 -0.141356 -0.137737 -0.0576074 -0.0547594 -0.0987942 -0.0957256 0.0540779 0.0371577 0.096234 0.0751142 0.096234 0.0751142 0.140906 0.115207 0.113411 0.096234 0.161295 0.140906 0.0683492 0.0540779 0.113411 0.096234 0.19079 0.231675 0.181958 0.216785 0.196312 0.241994 0.19079 0.231675 -0.0775551 -0.0454122 -0.0684033 -0.0340055 -0.18198 -0.160873 -0.0924931 -0.0776604 -0.160873 -0.133673 -0.0776604 -0.0602522 -0.0776604 -0.0602522 0 0 -0.0924931 -0.0776604 0 0 0.196312 0.198746 0.241994 0.248155 0.198746 0.198267 0.248155 0.250067 0.248155 0.250067 0.294952 0.300001 0.241994 0.248155 0.284132 0.294952 0.0258462 0.0141673 0.0683492 0.0540779 -0.014661 -0.0239665 0.0258462 0.0141673 -0.0239665 -0.0340055 0.0141673 0.000959852 0.0141673 0.000959852 0.0540779 0.0371577 -0.0139624 0.0176043 0.000959852 0.0371577 -0.0454122 -0.0139624 -0.0340055 0.000959852 -0.0604826 -0.0576074 -0.101396 -0.0987942 -0.101396 -0.0987942 -0.143493 -0.141356 -0.104394 -0.101396 -0.145775 -0.143493 -0.0637191 -0.0604826 -0.104394 -0.101396 -0.0468137 -0.00627956 -0.0405332 0.000926256 -0.0861663 -0.0468137 -0.0808737 -0.0405332 -0.091571 -0.0536802 -0.0861663 -0.0468137 -0.0536802 -0.014661 -0.0468137 -0.00627956 -0.249433 -0.203581 -0.244489 -0.199541 -0.25615 -0.208857 -0.249433 -0.203581 -0.208857 -0.167038 -0.203581 -0.162871 -0.203581 -0.162871 -0.199541 -0.159178 -0.0637191 -0.0229806 -0.0604826 -0.0199462 -0.0229806 0.0182907 -0.0199462 0.0207974 -0.0199462 0.0207974 -0.01721 0.0229473 -0.0604826 -0.0199462 -0.0576074 -0.01721 -0.249433 -0.244489 -0.300654 -0.294945 0.0605447 0.104261 0.0622005 0.104577 0.0622005 0.104577 0.0632394 0.103664 0.0207974 0.0622005 0.0229473 0.0632394 0.0182907 0.0605447 0.0207974 0.0622005 -0.0536802 -0.0608317 -0.014661 -0.0239665 -0.091571 -0.0969904 -0.0536802 -0.0608317 -0.0969904 -0.103038 -0.0608317 -0.0684033 -0.0608317 -0.0684033 -0.0239665 -0.0340055 -0.236737 -0.28581 -0.238432 -0.287888 -0.235522 -0.283519 -0.236737 -0.28581 0.149704 0.196312 0.147826 0.19079 0.147826 0.19079 0.143754 0.181958 0.104577 0.147826 0.103664 0.143754 0.104261 0.149704 0.104577 0.147826 -0.014661 0.0258462 -0.00627956 0.0357718 0.0258462 0.0683492 0.0357718 0.0799195 0.0357718 0.0799195 0.0438649 0.0889069 -0.00627956 0.0357718 0.000926256 0.0438649 0.100054 0.0955253 0.147817 0.143616 0.0955253 0.0889069 0.143616 0.136744 0.143616 0.136744 0.194692 0.187664 0.147817 0.143616 0.198267 0.194692 0.143754 0.181958 0.136849 0.169696 0.103664 0.143754 0.10095 0.136849 -0.0576074 -0.01721 -0.0547594 -0.0147605 -0.01721 0.0229473 -0.0147605 0.0245321 -0.0147605 0.0245321 -0.0122837 0.0253471 -0.0547594 -0.0147605 -0.0509991 -0.0122837 -0.18198 -0.0924931 -0.194653 -0.102648 -0.0924931 0 -0.102648 0 -0.102648 0 -0.105735 0 -0.194653 -0.102648 -0.197599 -0.105735 0.24769 0.240774 0.299521 0.293263 0.250067 0.24769 0.300001 0.299521 0.198267 0.194692 0.250067 0.24769 0.194692 0.187664 0.24769 0.240774 0.228868 0.280919 0.240774 0.293263 0.176708 0.228868 0.187664 0.240774 0.161295 0.211401 0.176708 0.228868 0.211401 0.262042 0.228868 0.280919 0.187784 0.157671 0.236231 0.203399 0.211401 0.187784 0.262042 0.236231 0.161295 0.140906 0.211401 0.187784 0.140906 0.115207 0.187784 0.157671 -0.0314884 -0.0209095 -0.0432291 -0.0299436 -0.0209095 -0.0116502 -0.0299436 -0.0180748 -0.0432291 -0.0299436 -0.0568833 -0.0407788 -0.0299436 -0.0180748 -0.0407788 -0.0261164 -0.0543627 -0.0428319 -0.0712246 -0.0572278 -0.0428319 -0.0314884 -0.0572278 -0.0432291 -0.0712246 -0.0572278 -0.0899653 -0.0735654 -0.0572278 -0.0432291 -0.0735654 -0.0568833 -0.026699 -0.0200356 -0.0395035 -0.030434 -0.0200356 -0.0137154 -0.030434 -0.0216642 -0.0395035 -0.030434 -0.0543627 -0.0428319 -0.030434 -0.0216642 -0.0428319 -0.0314884 -0.0137154 -0.0080736 -0.0216642 -0.0136459 -0.0080736 -0.00342226 -0.0136459 -0.00680127 -0.0216642 -0.0136459 -0.0314884 -0.0209095 -0.0136459 -0.00680127 -0.0209095 -0.0116502 -0.166041 -0.142083 -0.150533 -0.127412 -0.142083 -0.118726 -0.127412 -0.105263 -0.150533 -0.127412 -0.13201 -0.110347 -0.127412 -0.105263 -0.110347 -0.0899653 -0.213591 -0.190056 -0.197628 -0.174115 -0.190056 -0.166041 -0.174115 -0.150533 -0.197628 -0.174115 -0.177287 -0.154495 -0.174115 -0.150533 -0.154495 -0.13201 -0.230003 -0.208466 -0.224502 -0.201643 -0.208466 -0.185566 -0.201643 -0.177866 -0.224502 -0.201643 -0.213591 -0.190056 -0.201643 -0.177866 -0.190056 -0.166041 -0.185566 -0.161839 -0.177866 -0.153712 -0.161839 -0.137861 -0.153712 -0.129745 -0.177866 -0.153712 -0.166041 -0.142083 -0.153712 -0.129745 -0.142083 -0.118726 0.216713 0.193562 0.216346 0.195957 0.193562 0.168932 0.195957 0.174149 0.216346 0.195957 0.212506 0.194844 0.195957 0.174149 0.194844 0.175805 0.25767 0.238137 0.25208 0.2351 0.238137 0.216713 0.2351 0.216346 0.25208 0.2351 0.243048 0.228607 0.2351 0.216346 0.228607 0.212506 -0.232517 -0.19016 -0.202991 -0.162257 -0.19016 -0.148294 -0.162257 -0.123456 -0.202991 -0.162257 -0.171674 -0.133943 -0.162257 -0.123456 -0.133943 -0.0991188 -0.282831 -0.240693 -0.259347 -0.216563 -0.240693 -0.195737 -0.216563 -0.172669 -0.259347 -0.216563 -0.232517 -0.19016 -0.216563 -0.172669 -0.19016 -0.148294 -0.195737 -0.151652 -0.172669 -0.130802 -0.151652 -0.111134 -0.130802 -0.0931393 -0.172669 -0.130802 -0.148294 -0.109443 -0.130802 -0.0931393 -0.109443 -0.0752165 -0.148294 -0.109443 -0.123456 -0.0883425 -0.109443 -0.0752165 -0.0883425 -0.0580091 -0.123456 -0.0883425 -0.0991188 -0.0682892 -0.0883425 -0.0580091 -0.0682892 -0.0421304 -0.287888 -0.313448 -0.289303 -0.314925 -0.313448 -0.336792 -0.314925 -0.338735 -0.289303 -0.314925 -0.290718 -0.316763 -0.314925 -0.338735 -0.316763 -0.34066 -0.290718 -0.316763 -0.292832 -0.318696 -0.316763 -0.34066 -0.318696 -0.342438 -0.292832 -0.318696 -0.294945 -0.321118 -0.318696 -0.342438 -0.321118 -0.344378 -0.0756987 -0.0655017 -0.0964648 -0.0845195 -0.0655017 -0.0543627 -0.0845195 -0.0712246 -0.0964648 -0.0845195 -0.118726 -0.105263 -0.0845195 -0.0712246 -0.105263 -0.0899653 -0.0914086 -0.084466 -0.11421 -0.106507 -0.084466 -0.0756987 -0.106507 -0.0964648 -0.11421 -0.106507 -0.137861 -0.129745 -0.106507 -0.0964648 -0.129745 -0.118726 -0.0499288 -0.0452749 -0.0698768 -0.0639746 -0.0452749 -0.039656 -0.0639746 -0.0567037 -0.0698768 -0.0639746 -0.0914086 -0.084466 -0.0639746 -0.0567037 -0.084466 -0.0756987 -0.039656 -0.0333553 -0.0567037 -0.04841 -0.0333553 -0.026699 -0.04841 -0.0395035 -0.0567037 -0.04841 -0.0756987 -0.0655017 -0.04841 -0.0395035 -0.0655017 -0.0543627 -0.0906178 -0.0866967 -0.110652 -0.106042 -0.0866967 -0.0818186 -0.106042 -0.0998328 -0.110652 -0.106042 -0.130686 -0.124864 -0.106042 -0.0998328 -0.124864 -0.117394 -0.0509991 -0.0483813 -0.0708085 -0.0675669 -0.0483813 -0.0453865 -0.0675669 -0.0635914 -0.0708085 -0.0675669 -0.0906178 -0.0866967 -0.0675669 -0.0635914 -0.0866967 -0.0818186 -0.0453865 -0.0415437 -0.0635914 -0.0585511 -0.0415437 -0.0368534 -0.0585511 -0.052362 -0.0635914 -0.0585511 -0.0818186 -0.0754421 -0.0585511 -0.052362 -0.0754421 -0.0676659 -0.0818186 -0.0754421 -0.0998328 -0.0920022 -0.0754421 -0.0676659 -0.0920022 -0.0825199 -0.0998328 -0.0920022 -0.117394 -0.107933 -0.0920022 -0.0825199 -0.107933 -0.0966317 0.116709 0.0901885 0.127529 0.10358 0.0901885 0.0644111 0.10358 0.079992 0.127529 0.10358 0.134629 0.11316 0.10358 0.079992 0.11316 0.0916611 0.168932 0.143161 0.174149 0.151212 0.143161 0.116709 0.151212 0.127529 0.174149 0.151212 0.175805 0.155631 0.151212 0.127529 0.155631 0.134629 0 0 -0.00313338 -0.000846945 0 0 -0.000846945 0.000512682 -0.00313338 -0.000846945 -0.00881868 -0.00154537 -0.000846945 0.000512682 -0.00154537 0.00308967 -0.00881868 -0.00154537 -0.0111055 0.00086599 -0.00154537 0.00308967 0.00086599 0.00911124 -0.0111055 0.00086599 -0.00726941 0.00812129 0.00086599 0.00911124 0.00812129 0.019313 -0.0484156 -0.0594312 -0.0585841 -0.0715658 -0.0594312 -0.0696488 -0.0715658 -0.0837462 -0.0585841 -0.0715658 -0.0676659 -0.0825199 -0.0715658 -0.0837462 -0.0825199 -0.0966317 -0.0249926 -0.0368589 -0.031306 -0.0450828 -0.0368589 -0.0484156 -0.0450828 -0.0585841 -0.031306 -0.0450828 -0.0368534 -0.052362 -0.0450828 -0.0585841 -0.052362 -0.0676659 -0.0111967 -0.0188503 -0.0181353 -0.0279575 -0.0188503 -0.0262705 -0.0279575 -0.0374812 -0.0181353 -0.0279575 -0.0249926 -0.0368589 -0.0279575 -0.0374812 -0.0368589 -0.0484156 -0.0262705 -0.0332762 -0.0374812 -0.0464967 -0.0332762 -0.03968 -0.0464967 -0.0547792 -0.0374812 -0.0464967 -0.0484156 -0.0594312 -0.0464967 -0.0547792 -0.0594312 -0.0696488 0.290724 0.275214 0.280474 0.267218 0.275214 0.25767 0.267218 0.25208 0.280474 0.267218 0.266775 0.255783 0.267218 0.25208 0.255783 0.243048 0.315608 0.304176 0.301321 0.291846 0.304176 0.290724 0.291846 0.280474 0.301321 0.291846 0.284132 0.276143 0.291846 0.280474 0.276143 0.266775 0.0499397 0.0648066 0.0675896 0.0841503 0.0648066 0.0807703 0.0841503 0.101644 0.0675896 0.0841503 0.0843479 0.102807 0.0841503 0.101644 0.102807 0.121266 0.0807703 0.0985781 0.101644 0.120663 0.0985781 0.119226 0.120663 0.142048 0.101644 0.120663 0.121266 0.142439 0.120663 0.142048 0.142439 0.163612 -0.279139 -0.274837 -0.298757 -0.293054 -0.274837 -0.270534 -0.293054 -0.285199 -0.298757 -0.293054 -0.313972 -0.305653 -0.293054 -0.285199 -0.305653 -0.29525 -0.283519 -0.281329 -0.306218 -0.303123 -0.281329 -0.279139 -0.303123 -0.298757 -0.306218 -0.303123 -0.325387 -0.320405 -0.303123 -0.298757 -0.320405 -0.313972 -0.00326852 -0.00153812 -0.00759137 -0.00408134 -0.00153812 -0.000265004 -0.00408134 -0.00132358 -0.00759137 -0.00408134 -0.0137154 -0.0080736 -0.00408134 -0.00132358 -0.0080736 -0.00342226 -0.00761321 -0.00533306 -0.0160066 -0.0116414 -0.00533306 -0.00326852 -0.0116414 -0.00759137 -0.0160066 -0.0116414 -0.026699 -0.0200356 -0.0116414 -0.00759137 -0.0200356 -0.0137154 0 0 -0.0019691 -0.00132033 0 0 -0.00132033 -0.000747024 -0.0019691 -0.00132033 -0.00761321 -0.00533306 -0.00132033 -0.000747024 -0.00533306 -0.00326852 0 0 -0.000747024 -0.000282246 0 0 -0.000282246 3.79998e-05 -0.000747024 -0.000282246 -0.00326852 -0.00153812 -0.000282246 3.79998e-05 -0.00153812 -0.000265004 -0.00726941 0.00812129 0.00320281 0.0205014 0.00812129 0.019313 0.0205014 0.0335393 0.00320281 0.0205014 0.0195456 0.037354 0.0205014 0.0335393 0.037354 0.051005 0.0195456 0.037354 0.04043 0.057575 0.037354 0.051005 0.057575 0.0706936 0.04043 0.057575 0.0644111 0.079992 0.057575 0.0706936 0.079992 0.0916611 -0.018857 -0.0360954 -0.0179968 -0.0346723 -0.0360954 -0.055478 -0.0346723 -0.0533389 -0.0179968 -0.0346723 -0.0164499 -0.0321598 -0.0346723 -0.0533389 -0.0321598 -0.0498957 -0.25615 -0.261719 -0.232503 -0.235961 -0.261719 -0.267435 -0.235961 -0.241504 -0.232503 -0.235961 -0.208857 -0.212528 -0.235961 -0.241504 -0.212528 -0.216199 -0.267435 -0.273066 -0.241504 -0.247809 -0.273066 -0.277623 -0.247809 -0.25412 -0.241504 -0.247809 -0.216199 -0.222448 -0.247809 -0.25412 -0.222448 -0.229309 -0.216199 -0.222448 -0.194399 -0.198352 -0.222448 -0.229309 -0.198352 -0.20475 -0.194399 -0.198352 -0.172599 -0.176816 -0.198352 -0.20475 -0.176816 -0.181034 -0.304962 -0.272178 -0.278391 -0.242897 -0.272178 -0.232517 -0.242897 -0.202991 -0.278391 -0.242897 -0.247186 -0.210402 -0.242897 -0.202991 -0.210402 -0.171674 -0.180114 -0.158925 -0.175332 -0.155309 -0.158925 -0.137737 -0.155309 -0.134211 -0.175332 -0.155309 -0.169225 -0.150304 -0.155309 -0.134211 -0.150304 -0.130686 -0.220836 -0.200475 -0.213036 -0.195095 -0.200475 -0.180114 -0.195095 -0.175332 -0.213036 -0.195095 -0.202848 -0.187051 -0.195095 -0.175332 -0.187051 -0.169225 -0.282831 -0.302541 -0.240693 -0.261936 -0.302541 -0.318425 -0.261936 -0.279931 -0.240693 -0.261936 -0.195737 -0.216813 -0.261936 -0.279931 -0.216813 -0.235365 -0.318425 -0.330668 -0.279931 -0.29455 -0.330668 -0.339584 -0.29455 -0.305829 -0.279931 -0.29455 -0.235365 -0.251038 -0.29455 -0.305829 -0.251038 -0.263713 -0.235365 -0.251038 -0.189179 -0.204715 -0.251038 -0.263713 -0.204715 -0.217632 -0.189179 -0.204715 -0.144916 -0.159684 -0.204715 -0.217632 -0.159684 -0.17215 -0.195737 -0.216813 -0.151652 -0.171304 -0.216813 -0.235365 -0.171304 -0.189179 -0.151652 -0.171304 -0.111134 -0.128576 -0.171304 -0.189179 -0.128576 -0.144916 0 0 3.79998e-05 0.000151374 0 0 0.000151374 -2.45205e-05 3.79998e-05 0.000151374 -0.000265004 0.000408616 0.000151374 -2.45205e-05 0.000408616 0.000187283 0 0 -2.45205e-05 -0.00159242 0 0 -0.00159242 0 -2.45205e-05 -0.00159242 0.000187283 -0.000542074 -0.00159242 0 -0.000542074 0 0.000187283 -0.000542074 0.00116418 0.000907323 -0.000542074 0 0.000907323 0 0.00116418 0.000907323 0.00186462 0.00206483 0.000907323 0 0.00206483 0 -0.000265004 0.000408616 -0.00132358 0.000462745 0.000408616 0.000187283 0.000462745 0.00116418 -0.00132358 0.000462745 -0.00342226 -3.34265e-05 0.000462745 0.00116418 -3.34265e-05 0.00186462 -0.055687 -0.076249 -0.03408 -0.0500062 -0.076249 -0.0991188 -0.0500062 -0.0682892 -0.03408 -0.0500062 -0.0163374 -0.0281076 -0.0500062 -0.0682892 -0.0281076 -0.0421304 -0.0238051 -0.0380761 -0.0107096 -0.0209163 -0.0380761 -0.055687 -0.0209163 -0.03408 -0.0107096 -0.0209163 -0.000330296 -0.00705722 -0.0209163 -0.03408 -0.00705722 -0.0163374 -0.0574925 -0.0816737 -0.0393711 -0.0583127 -0.0816737 -0.109574 -0.0583127 -0.080899 -0.0393711 -0.0583127 -0.0238051 -0.0380761 -0.0583127 -0.080899 -0.0380761 -0.055687 -0.109574 -0.140041 -0.080899 -0.106437 -0.140041 -0.171674 -0.106437 -0.133943 -0.080899 -0.106437 -0.055687 -0.076249 -0.106437 -0.133943 -0.076249 -0.0991188 -0.117273 -0.161799 -0.0974541 -0.138711 -0.161799 -0.206251 -0.138711 -0.182368 -0.0974541 -0.138711 -0.078149 -0.114906 -0.138711 -0.182368 -0.114906 -0.155746 -0.0670614 -0.108472 -0.0554145 -0.092916 -0.108472 -0.154893 -0.092916 -0.136837 -0.0554145 -0.092916 -0.0442287 -0.0767558 -0.092916 -0.136837 -0.0767558 -0.117273 0.221176 0.240187 0.189474 0.20993 0.240187 0.257716 0.20993 0.228412 0.189474 0.20993 0.163612 0.183505 0.20993 0.228412 0.183505 0.203399 0.17805 0.200594 0.144785 0.167862 0.200594 0.221176 0.167862 0.189474 0.144785 0.167862 0.119226 0.142048 0.167862 0.189474 0.142048 0.163612 -0.225149 -0.207659 -0.230089 -0.210407 -0.207659 -0.188053 -0.210407 -0.188943 -0.230089 -0.210407 -0.230003 -0.208466 -0.210407 -0.188943 -0.208466 -0.185566 -0.202848 -0.19004 -0.215781 -0.200661 -0.19004 -0.174781 -0.200661 -0.183178 -0.215781 -0.200661 -0.225149 -0.207659 -0.200661 -0.183178 -0.207659 -0.188053 -0.174781 -0.157348 -0.183178 -0.163726 -0.157348 -0.138188 -0.163726 -0.142817 -0.183178 -0.163726 -0.188053 -0.166787 -0.163726 -0.142817 -0.166787 -0.14442 -0.188053 -0.166787 -0.188943 -0.16621 -0.166787 -0.14442 -0.16621 -0.142789 -0.188943 -0.16621 -0.185566 -0.161839 -0.16621 -0.142789 -0.161839 -0.137861 -0.00471712 0.00868702 0.00688886 0.0217364 0.00868702 0.0221493 0.0217364 0.036553 0.00688886 0.0217364 0.0176043 0.0338724 0.0217364 0.036553 0.0338724 0.0501405 0.0221493 0.0358299 0.036553 0.0519276 0.0358299 0.0499397 0.0519276 0.0675896 0.036553 0.0519276 0.0501405 0.0672442 0.0519276 0.0675896 0.0672442 0.0843479 0.000498817 0.00251621 -0.000722245 0.00103093 0.00251621 0.00496425 0.00103093 0.00291339 -0.000722245 0.00103093 0 0 0.00103093 0.00291339 0 0 0 -5.47721e-05 0 -0.00177201 -5.47721e-05 0.000498817 -0.00177201 -0.000722245 0 -0.00177201 0 0 -0.00177201 -0.000722245 0 0 0 0.000565419 0 0.000389533 0.000565419 0.00198264 0.000389533 0.00161504 0 0.000389533 0 -5.47721e-05 0.000389533 0.00161504 -5.47721e-05 0.000498817 0.00198264 0.00376424 0.00161504 0.0035642 0.00376424 0.00542085 0.0035642 0.00583638 0.00161504 0.0035642 0.000498817 0.00251621 0.0035642 0.00583638 0.00251621 0.00496425 -0.174653 -0.212011 -0.141248 -0.175913 -0.212011 -0.247186 -0.175913 -0.210402 -0.141248 -0.175913 -0.109574 -0.140041 -0.175913 -0.210402 -0.140041 -0.171674 -0.102208 -0.13737 -0.0784158 -0.108174 -0.13737 -0.174653 -0.108174 -0.141248 -0.0784158 -0.108174 -0.0574925 -0.0816737 -0.108174 -0.141248 -0.0816737 -0.109574 -0.155746 -0.197823 -0.128418 -0.167917 -0.197823 -0.237989 -0.167917 -0.207777 -0.128418 -0.167917 -0.102208 -0.13737 -0.167917 -0.207777 -0.13737 -0.174653 -0.241426 -0.21921 -0.236219 -0.212174 -0.21921 -0.196284 -0.212174 -0.188494 -0.236219 -0.212174 -0.229309 -0.20475 -0.212174 -0.188494 -0.20475 -0.181034 -0.0555061 -0.0533886 -0.0766203 -0.0741494 -0.0533886 -0.0499288 -0.0741494 -0.0698768 -0.0766203 -0.0741494 -0.0987794 -0.0962363 -0.0741494 -0.0698768 -0.0962363 -0.0914086 -0.0987794 -0.0962363 -0.121554 -0.119276 -0.0962363 -0.0914086 -0.119276 -0.11421 -0.121554 -0.119276 -0.14442 -0.142789 -0.119276 -0.11421 -0.142789 -0.137861 -0.0969111 -0.0989857 -0.117846 -0.121037 -0.0989857 -0.0987794 -0.121037 -0.121554 -0.117846 -0.121037 -0.138188 -0.142817 -0.121037 -0.121554 -0.142817 -0.14442 -0.055478 -0.0562145 -0.0759463 -0.0772172 -0.0562145 -0.0555061 -0.0772172 -0.0766203 -0.0759463 -0.0772172 -0.0969111 -0.0989857 -0.0772172 -0.0766203 -0.0989857 -0.0987794 -0.149685 -0.134159 -0.136433 -0.12289 -0.134159 -0.117394 -0.12289 -0.107933 -0.136433 -0.12289 -0.121201 -0.109655 -0.1