# vtk DataFile Version 3.0
#This file was generated by the deal.II library on 2020/12/25 at 16:49:56
ASCII
DATASET UNSTRUCTURED_GRID

POINTS 29412 double
0.458332 0.541659 0
0.499999 0.541659 0
0.458332 0.583326 0
0.499999 0.583326 0
0.416666 0.541659 0
0.458332 0.541659 0
0.416666 0.583326 0
0.458332 0.583326 0
0.416666 0.499992 0
0.458332 0.499992 0
0.416666 0.541659 0
0.458332 0.541659 0
0.458332 0.499992 0
0.499999 0.499992 0
0.458332 0.541659 0
0.499999 0.541659 0
0.541666 0.624993 0
0.583332 0.624993 0
0.541666 0.66666 0
0.583332 0.66666 0
0.499999 0.624993 0
0.541666 0.624993 0
0.499999 0.66666 0
0.541666 0.66666 0
0.499999 0.583326 0
0.541666 0.583326 0
0.499999 0.624993 0
0.541666 0.624993 0
0.541666 0.583326 0
0.583332 0.583326 0
0.541666 0.624993 0
0.583332 0.624993 0
0.499999 0.541659 0
0.541666 0.541659 0
0.499999 0.583326 0
0.541666 0.583326 0
0.499999 0.499992 0
0.541666 0.499992 0
0.499999 0.541659 0
0.541666 0.541659 0
0.541666 0.499992 0
0.583332 0.499992 0
0.541666 0.541659 0
0.583332 0.541659 0
0.541666 0.541659 0
0.583332 0.541659 0
0.541666 0.583326 0
0.583332 0.583326 0
0.499999 0.458326 0
0.499999 0.416659 0
0.541666 0.458326 0
0.541666 0.416659 0
0.541666 0.458326 0
0.541666 0.416659 0
0.583332 0.458326 0
0.583332 0.416659 0
0.541666 0.499992 0
0.541666 0.458326 0
0.583332 0.499992 0
0.583332 0.458326 0
0.499999 0.499992 0
0.499999 0.458326 0
0.541666 0.499992 0
0.541666 0.458326 0
0.499999 0.374993 0
0.541666 0.374993 0
0.499999 0.416659 0
0.541666 0.416659 0
0.499999 0.333326 0
0.541666 0.333326 0
0.499999 0.374993 0
0.541666 0.374993 0
0.541666 0.333326 0
0.583332 0.333327 0
0.541666 0.374993 0
0.583332 0.374993 0
0.541666 0.374993 0
0.583332 0.374993 0
0.541666 0.416659 0
0.583332 0.416659 0
0.458332 0.499992 0
0.458332 0.458326 0
0.499999 0.499992 0
0.499999 0.458326 0
0.416666 0.499992 0
0.416666 0.458326 0
0.458332 0.499992 0
0.458332 0.458326 0
0.416666 0.458326 0
0.416666 0.416659 0
0.458332 0.458326 0
0.458332 0.416659 0
0.458332 0.458326 0
0.458332 0.416659 0
0.499999 0.458326 0
0.499999 0.416659 0
0.541666 0.333326 0
0.541666 0.29166 0
0.583332 0.333327 0
0.583333 0.29166 0
0.499999 0.333326 0
0.499999 0.29166 0
0.541666 0.333326 0
0.541666 0.29166 0
0.708333 0.458327 0
0.708333 0.41666 0
0.749999 0.458328 0
0.749999 0.416661 0
0.708332 0.499994 0
0.708333 0.458327 0
0.749999 0.499994 0
0.749999 0.458328 0
0.666666 0.499993 0
0.666666 0.458327 0
0.708332 0.499994 0
0.708333 0.458327 0
0.666666 0.458327 0
0.666666 0.41666 0
0.708333 0.458327 0
0.708333 0.41666 0
0.416666 0.583326 0
0.458332 0.583326 0
0.416666 0.624993 0
0.458332 0.624993 0
0.458332 0.583326 0
0.499999 0.583326 0
0.458332 0.624993 0
0.499999 0.624993 0
0.458332 0.624993 0
0.499999 0.624993 0
0.458332 0.66666 0
0.499999 0.66666 0
0.416666 0.624993 0
0.458332 0.624993 0
0.416666 0.66666 0
0.458332 0.66666 0
0.458333 0.708327 0
0.499999 0.708327 0
0.458333 0.749994 0
0.499999 0.749994 0
0.416666 0.708327 0
0.458333 0.708327 0
0.416666 0.749994 0
0.458333 0.749994 0
0.416666 0.66666 0
0.458332 0.66666 0
0.416666 0.708327 0
0.458333 0.708327 0
0.458332 0.66666 0
0.499999 0.66666 0
0.458333 0.708327 0
0.499999 0.708327 0
0.458332 0.333326 0
0.499999 0.333326 0
0.458332 0.374993 0
0.499999 0.374993 0
0.458332 0.374993 0
0.499999 0.374993 0
0.458332 0.416659 0
0.499999 0.416659 0
0.416666 0.374993 0
0.458332 0.374993 0
0.416666 0.416659 0
0.458332 0.416659 0
0.416666 0.333327 0
0.458332 0.333326 0
0.416666 0.374993 0
0.458332 0.374993 0
0.374999 0.374993 0
0.374999 0.416659 0
0.333332 0.374993 0
0.333332 0.41666 0
0.374999 0.333327 0
0.374999 0.374993 0
0.333333 0.333327 0
0.333332 0.374993 0
0.416666 0.333327 0
0.416666 0.374993 0
0.374999 0.333327 0
0.374999 0.374993 0
0.416666 0.374993 0
0.416666 0.416659 0
0.374999 0.374993 0
0.374999 0.416659 0
0.791666 0.791664 0
0.791666 0.833331 0
0.75 0.791663 0
0.75 0.83333 0
0.791666 0.749997 0
0.791666 0.791664 0
0.749999 0.749996 0
0.75 0.791663 0
0.291666 0.624994 0
0.291666 0.666661 0
0.249999 0.624995 0
0.249999 0.666662 0
0.291666 0.583327 0
0.291666 0.624994 0
0.249999 0.583328 0
0.249999 0.624995 0
0.333332 0.583326 0
0.333332 0.624994 0
0.291666 0.583327 0
0.291666 0.624994 0
0.333332 0.624994 0
0.333333 0.666661 0
0.291666 0.624994 0
0.291666 0.666661 0
0.416666 0.333327 0
0.374999 0.333327 0
0.416666 0.29166 0
0.374999 0.291661 0
0.374999 0.333327 0
0.333333 0.333327 0
0.374999 0.291661 0
0.333333 0.291661 0
0.624999 0.66666 0
0.624999 0.708328 0
0.583332 0.66666 0
0.583333 0.708327 0
0.666666 0.666661 0
0.666666 0.708328 0
0.624999 0.66666 0
0.624999 0.708328 0
0.666666 0.708328 0
0.666666 0.749995 0
0.624999 0.708328 0
0.624999 0.749995 0
0.624999 0.708328 0
0.624999 0.749995 0
0.583333 0.708327 0
0.583333 0.749995 0
0.541667 0.0416655 0
0.541667 0 0
0.583333 0.0416656 0
0.583333 0 0
0.541666 0.0833311 0
0.541667 0.0416655 0
0.583333 0.0833311 0
0.583333 0.0416656 0
0.5 0.0833311 0
0.5 0.0416655 0
0.541666 0.0833311 0
0.541667 0.0416655 0
0.5 0.0416655 0
0.5 0 0
0.541667 0.0416655 0
0.541667 0 0
0.666666 0.374994 0
0.708333 0.374994 0
0.666666 0.41666 0
0.708333 0.41666 0
0.333333 0.333327 0
0.333332 0.374993 0
0.291666 0.333328 0
0.291666 0.374994 0
0.333332 0.374993 0
0.333332 0.41666 0
0.291666 0.374994 0
0.291666 0.41666 0
0.791666 0.70833 0
0.791666 0.749997 0
0.749999 0.708329 0
0.749999 0.749996 0
0.791666 0.666663 0
0.791666 0.70833 0
0.749999 0.666662 0
0.749999 0.708329 0
0.666666 0.458327 0
0.624999 0.458326 0
0.666666 0.41666 0
0.624999 0.41666 0
0.666666 0.499993 0
0.624999 0.499993 0
0.666666 0.458327 0
0.624999 0.458326 0
0.624999 0.499993 0
0.583332 0.499992 0
0.624999 0.458326 0
0.583332 0.458326 0
0.624999 0.458326 0
0.583332 0.458326 0
0.624999 0.41666 0
0.583332 0.416659 0
0.291666 0.499994 0
0.249999 0.499994 0
0.291666 0.458327 0
0.249999 0.458327 0
0.291666 0.458327 0
0.249999 0.458327 0
0.291666 0.41666 0
0.249999 0.416661 0
0.333332 0.458326 0
0.291666 0.458327 0
0.333332 0.41666 0
0.291666 0.41666 0
0.333332 0.499993 0
0.291666 0.499994 0
0.333332 0.458326 0
0.291666 0.458327 0
0.708333 0.666661 0
0.749999 0.666662 0
0.708333 0.708328 0
0.749999 0.708329 0
0.708333 0.708328 0
0.749999 0.708329 0
0.708333 0.749996 0
0.749999 0.749996 0
0.666666 0.708328 0
0.708333 0.708328 0
0.666666 0.749995 0
0.708333 0.749996 0
0.666666 0.666661 0
0.708333 0.666661 0
0.666666 0.708328 0
0.708333 0.708328 0
0.374999 0.749995 0
0.374999 0.791662 0
0.333333 0.749995 0
0.333333 0.791662 0
0.416666 0.749994 0
0.416666 0.791662 0
0.374999 0.749995 0
0.374999 0.791662 0
0.791666 0.541662 0
0.791666 0.583329 0
0.749999 0.541661 0
0.749999 0.583328 0
0.416666 0.0833311 0
0.375 0.0833312 0
0.416667 0.0416656 0
0.375 0.0416656 0
0.375 0.0833312 0
0.333333 0.0833314 0
0.375 0.0416656 0
0.333333 0.0416657 0
0.375 0.0416656 0
0.333333 0.0416657 0
0.375 0 0
0.333333 0 0
0.416667 0.0416656 0
0.375 0.0416656 0
0.416667 0 0
0.375 0 0
0.416666 0.749994 0
0.458333 0.749994 0
0.416666 0.791662 0
0.458333 0.791662 0
0.458333 0.749994 0
0.499999 0.749994 0
0.458333 0.791662 0
0.499999 0.791662 0
0.458333 0.791662 0
0.499999 0.791662 0
0.458333 0.833329 0
0.499999 0.833329 0
0.416666 0.791662 0
0.458333 0.791662 0
0.416666 0.833329 0
0.458333 0.833329 0
0.666666 0.624994 0
0.708333 0.624994 0
0.666666 0.666661 0
0.708333 0.666661 0
0.666666 0.583327 0
0.708333 0.583327 0
0.666666 0.624994 0
0.708333 0.624994 0
0.708333 0.583327 0
0.749999 0.583328 0
0.708333 0.624994 0
0.749999 0.624995 0
0.708333 0.624994 0
0.749999 0.624995 0
0.708333 0.666661 0
0.749999 0.666662 0
0.791666 0.624996 0
0.791666 0.666663 0
0.749999 0.624995 0
0.749999 0.666662 0
0.791666 0.583329 0
0.791666 0.624996 0
0.749999 0.583328 0
0.749999 0.624995 0
0.374999 0.499993 0
0.333332 0.499993 0
0.374999 0.458326 0
0.333332 0.458326 0
0.374999 0.458326 0
0.333332 0.458326 0
0.374999 0.416659 0
0.333332 0.41666 0
0.416666 0.458326 0
0.374999 0.458326 0
0.416666 0.416659 0
0.374999 0.416659 0
0.416666 0.499992 0
0.374999 0.499993 0
0.416666 0.458326 0
0.374999 0.458326 0
0.624999 0.54166 0
0.624999 0.583326 0
0.583332 0.541659 0
0.583332 0.583326 0
0.624999 0.499993 0
0.624999 0.54166 0
0.583332 0.499992 0
0.583332 0.541659 0
0.666666 0.499993 0
0.666666 0.54166 0
0.624999 0.499993 0
0.624999 0.54166 0
0.666666 0.54166 0
0.666666 0.583327 0
0.624999 0.54166 0
0.624999 0.583326 0
0.624999 0.333327 0
0.624999 0.374993 0
0.583332 0.333327 0
0.583332 0.374993 0
0.666666 0.333327 0
0.666666 0.374994 0
0.624999 0.333327 0
0.624999 0.374993 0
0.666666 0.374994 0
0.666666 0.41666 0
0.624999 0.374993 0
0.624999 0.41666 0
0.624999 0.374993 0
0.624999 0.41666 0
0.583332 0.374993 0
0.583332 0.416659 0
0.416666 0.499992 0
0.416666 0.541659 0
0.374999 0.499993 0
0.374999 0.541659 0
0.416666 0.541659 0
0.416666 0.583326 0
0.374999 0.541659 0
0.374999 0.583326 0
0.374999 0.541659 0
0.374999 0.583326 0
0.333332 0.54166 0
0.333332 0.583326 0
0.374999 0.499993 0
0.374999 0.541659 0
0.333332 0.499993 0
0.333332 0.54166 0
0.624999 0.333327 0
0.583332 0.333327 0
0.624999 0.291661 0
0.583333 0.29166 0
0.416666 0.624993 0
0.416666 0.66666 0
0.374999 0.624993 0
0.374999 0.66666 0
0.374999 0.624993 0
0.374999 0.66666 0
0.333332 0.624994 0
0.333333 0.666661 0
0.374999 0.583326 0
0.374999 0.624993 0
0.333332 0.583326 0
0.333332 0.624994 0
0.416666 0.583326 0
0.416666 0.624993 0
0.374999 0.583326 0
0.374999 0.624993 0
0.666666 0.54166 0
0.708333 0.541661 0
0.666666 0.583327 0
0.708333 0.583327 0
0.666666 0.499993 0
0.708332 0.499994 0
0.666666 0.54166 0
0.708333 0.541661 0
0.708332 0.499994 0
0.749999 0.499994 0
0.708333 0.541661 0
0.749999 0.541661 0
0.708333 0.541661 0
0.749999 0.541661 0
0.708333 0.583327 0
0.749999 0.583328 0
0.458332 0.333326 0
0.458332 0.29166 0
0.499999 0.333326 0
0.499999 0.29166 0
0.416666 0.333327 0
0.416666 0.29166 0
0.458332 0.333326 0
0.458332 0.29166 0
0.416666 0.708327 0
0.416666 0.749994 0
0.374999 0.708328 0
0.374999 0.749995 0
0.374999 0.708328 0
0.374999 0.749995 0
0.333333 0.708328 0
[...]
POINT_DATA 29412
SCALARS solution_0 double 1
LOOKUP_TABLE default
-0.025044 -0.0289774 0.0157192 0.012009 -0.0216484 -0.025044 0.0187107 0.0157192 -0.0614691 -0.0650364 -0.0216484 -0.025044 -0.0650364 -0.0690326 -0.025044 -0.0289774 0.0496452 0.0434094 0.0939891 0.0874378 0.0543069 0.0496452 0.0985056 0.0939891 0.012009 0.00731454 0.0543069 0.0496452 0.00731454 0.00145205 0.0496452 0.0434094 -0.0289774 -0.0336051 0.012009 0.00731454 -0.0690326 -0.0734731 -0.0289774 -0.0336051 -0.0734731 -0.0783444 -0.0336051 -0.0390192 -0.0336051 -0.0390192 0.00731454 0.00145205 -0.108407 -0.14765 -0.112476 -0.151113 -0.112476 -0.151113 -0.116693 -0.154688 -0.0734731 -0.112476 -0.0783444 -0.116693 -0.0690326 -0.108407 -0.0734731 -0.112476 -0.188273 -0.19104 -0.14765 -0.151113 -0.232606 -0.235042 -0.188273 -0.19104 -0.235042 -0.238572 -0.19104 -0.194293 -0.19104 -0.194293 -0.151113 -0.154688 -0.0650364 -0.104619 -0.0690326 -0.108407 -0.0614691 -0.101247 -0.0650364 -0.104619 -0.101247 -0.141784 -0.104619 -0.14447 -0.104619 -0.14447 -0.108407 -0.14765 -0.235042 -0.283792 -0.238572 -0.287953 -0.232606 -0.280961 -0.235042 -0.283792 -0.129868 -0.16827 -0.136471 -0.176928 -0.0941724 -0.129868 -0.100297 -0.136471 -0.0888191 -0.125113 -0.0941724 -0.129868 -0.125113 -0.162559 -0.129868 -0.16827 0.0187107 0.0157192 0.0600563 0.0576643 0.0157192 0.012009 0.0576643 0.0543069 0.0576643 0.0543069 0.101333 0.0985056 0.0600563 0.0576643 0.102824 0.101333 0.147154 0.145184 0.194825 0.194313 0.147178 0.147154 0.192419 0.194825 0.102824 0.101333 0.147178 0.147154 0.101333 0.0985056 0.147154 0.145184 -0.230965 -0.232606 -0.186013 -0.188273 -0.186013 -0.188273 -0.14447 -0.14765 -0.184314 -0.186013 -0.141784 -0.14447 -0.229733 -0.230965 -0.184314 -0.186013 -0.1829 -0.139644 -0.18051 -0.13754 -0.227923 -0.1829 -0.223388 -0.18051 -0.229733 -0.184314 -0.227923 -0.1829 -0.184314 -0.141784 -0.1829 -0.139644 0.117983 0.159394 0.153573 0.198054 0.0820396 0.117983 0.112329 0.153573 0.0625831 0.099325 0.060715 0.0939835 0.0248111 0.0625831 0.0254485 0.060715 0.0233455 0.0627664 0.0248111 0.0625831 0.0627664 0.102221 0.0625831 0.099325 -0.229733 -0.227923 -0.27626 -0.27145 -0.227923 -0.223388 -0.27145 -0.262323 0.078566 0.124336 0.0874378 0.134163 0.0671542 0.111112 0.078566 0.124336 0.111112 0.157717 0.124336 0.172934 0.124336 0.172934 0.134163 0.183768 -0.0974761 0 -0.0855518 0 -0.183323 -0.0974761 -0.166061 -0.0855518 -0.190214 -0.101924 -0.183323 -0.0974761 -0.101924 0 -0.0974761 0 -0.203719 -0.211197 -0.162559 -0.16827 -0.223388 -0.18051 -0.214025 -0.174889 -0.18051 -0.13754 -0.174889 -0.133775 0.0487659 0.0820396 0.0733477 0.112329 0.0171072 0.0487659 0.0363994 0.0733477 -0.125113 -0.120928 -0.162559 -0.158348 -0.0888191 -0.083529 -0.125113 -0.120928 -0.083529 -0.0783444 -0.120928 -0.116693 -0.120928 -0.116693 -0.158348 -0.154688 -0.0527735 -0.0490394 -0.0928258 -0.0876307 -0.0928258 -0.0876307 -0.133775 -0.126528 -0.0958905 -0.0928258 -0.13754 -0.133775 -0.0555494 -0.0527735 -0.0958905 -0.0928258 0.053082 0.0363994 0.0941641 0.0733477 0.0941641 0.0733477 0.137616 0.112329 0.111112 0.0941641 0.157717 0.137616 0.0671542 0.053082 0.111112 0.0941641 0.186883 0.226048 0.177983 0.211167 0.192419 0.236365 0.186883 0.226048 -0.0757231 -0.0443065 -0.0664493 -0.0329178 -0.174868 -0.15447 -0.0889544 -0.0746886 -0.15447 -0.128305 -0.0746886 -0.0580103 -0.0746886 -0.0580103 0 0 -0.0889544 -0.0746886 0 0 0.192419 0.194825 0.236365 0.242504 0.194825 0.194313 0.242504 0.244417 0.242504 0.244417 0.287163 0.292229 0.236365 0.242504 0.276396 0.287163 0.02566 0.0141621 0.0671542 0.053082 -0.0138733 -0.0230139 0.02566 0.0141621 -0.0230139 -0.0329178 0.0141621 0.0011449 0.0141621 0.0011449 0.053082 0.0363994 -0.0136308 0.0171072 0.0011449 0.0363994 -0.0443065 -0.0136308 -0.0329178 0.0011449 -0.0583257 -0.0555494 -0.098391 -0.0958905 -0.098391 -0.0958905 -0.139644 -0.13754 -0.101247 -0.098391 -0.141784 -0.139644 -0.0614691 -0.0583257 -0.101247 -0.098391 -0.0451868 -0.00563857 -0.0390192 0.00145205 -0.083529 -0.0451868 -0.0783444 -0.0390192 -0.0888191 -0.0519141 -0.083529 -0.0451868 -0.0519141 -0.0138733 -0.0451868 -0.00563857 -0.243519 -0.19835 -0.238572 -0.194293 -0.250226 -0.203719 -0.243519 -0.19835 -0.203719 -0.162559 -0.19835 -0.158348 -0.19835 -0.158348 -0.194293 -0.154688 -0.0614691 -0.0216484 -0.0583257 -0.0186489 -0.0216484 0.0187107 -0.0186489 0.021232 -0.0186489 0.021232 -0.015979 0.0233455 -0.0583257 -0.0186489 -0.0555494 -0.015979 -0.243519 -0.238572 -0.293524 -0.287953 0.0600563 0.102824 0.0617561 0.103184 0.0617561 0.103184 0.0627664 0.102221 0.021232 0.0617561 0.0233455 0.0627664 0.0187107 0.0600563 0.021232 0.0617561 -0.0519141 -0.0589323 -0.0138733 -0.0230139 -0.0888191 -0.0941724 -0.0519141 -0.0589323 -0.0941724 -0.100297 -0.0589323 -0.0664493 -0.0589323 -0.0664493 -0.0230139 -0.0329178 -0.230965 -0.278792 -0.232606 -0.280961 -0.229733 -0.27626 -0.230965 -0.278792 0.147178 0.192419 0.145315 0.186883 0.145315 0.186883 0.141154 0.177983 0.103184 0.145315 0.102221 0.141154 0.102824 0.147178 0.103184 0.145315 -0.0138733 0.02566 -0.00563857 0.0354333 0.02566 0.0671542 0.0354333 0.078566 0.0354333 0.078566 0.0434094 0.0874378 -0.00563857 0.0354333 0.00145205 0.0434094 0.0985056 0.0939891 0.145184 0.14098 0.0939891 0.0874378 0.14098 0.134163 0.14098 0.134163 0.19074 0.183768 0.145184 0.14098 0.194313 0.19074 0.141154 0.177983 0.134085 0.165599 0.102221 0.141154 0.099325 0.134085 -0.0555494 -0.015979 -0.0527735 -0.0136301 -0.015979 0.0233455 -0.0136301 0.0248111 -0.0136301 0.0248111 -0.0112653 0.0254485 -0.0527735 -0.0136301 -0.0490394 -0.0112653 -0.174868 -0.0889544 -0.187208 -0.0988025 -0.0889544 0 -0.0988025 0 -0.0988025 0 -0.101924 0 -0.187208 -0.0988025 -0.190214 -0.101924 0.24207 0.23524 0.291824 0.285724 0.244417 0.24207 0.292229 0.291824 0.194313 0.19074 0.244417 0.24207 0.19074 0.183768 0.24207 0.23524 0.223498 0.273652 0.23524 0.285724 0.172934 0.223498 0.183768 0.23524 0.157717 0.206297 0.172934 0.223498 0.206297 0.2552 0.223498 0.273652 0.183088 0.153573 0.230015 0.198054 0.206297 0.183088 0.2552 0.230015 0.157717 0.137616 0.206297 0.183088 0.137616 0.112329 0.183088 0.153573 -0.0303356 -0.0202843 -0.0415645 -0.0289372 -0.0202843 -0.0114664 -0.0289372 -0.0176344 -0.0415645 -0.0289372 -0.054615 -0.039302 -0.0289372 -0.0176344 -0.039302 -0.0253367 -0.0520232 -0.0410964 -0.0681295 -0.0548529 -0.0410964 -0.0303356 -0.0548529 -0.0415645 -0.0681295 -0.0548529 -0.0860338 -0.0704616 -0.0548529 -0.0415645 -0.0704616 -0.054615 -0.0255844 -0.0192844 -0.0378266 -0.0292411 -0.0192844 -0.0132974 -0.0292411 -0.0209275 -0.0378266 -0.0292411 -0.0520232 -0.0410964 -0.0292411 -0.0209275 -0.0410964 -0.0303356 -0.0132974 -0.00793872 -0.0209275 -0.0133108 -0.00793872 -0.00350303 -0.0133108 -0.0067901 -0.0209275 -0.0133108 -0.0303356 -0.0202843 -0.0133108 -0.0067901 -0.0202843 -0.0114664 -0.158714 -0.135727 -0.1439 -0.12175 -0.135727 -0.113357 -0.12175 -0.100561 -0.1439 -0.12175 -0.126246 -0.105517 -0.12175 -0.100561 -0.105517 -0.0860338 -0.204502 -0.181809 -0.18914 -0.16653 -0.181809 -0.158714 -0.16653 -0.1439 -0.18914 -0.16653 -0.169663 -0.14779 -0.16653 -0.1439 -0.14779 -0.126246 -0.220609 -0.199672 -0.215109 -0.192988 -0.199672 -0.177513 -0.192988 -0.17006 -0.215109 -0.192988 -0.204502 -0.181809 -0.192988 -0.17006 -0.181809 -0.158714 -0.177513 -0.15464 -0.17006 -0.146836 -0.15464 -0.131599 -0.146836 -0.123847 -0.17006 -0.146836 -0.158714 -0.135727 -0.146836 -0.123847 -0.135727 -0.113357 0.208526 0.185969 0.208703 0.188766 0.185969 0.162034 0.188766 0.167498 0.208703 0.188766 0.205502 0.188158 0.188766 0.167498 0.188158 0.169517 0.248584 0.229455 0.243781 0.22709 0.229455 0.208526 0.22709 0.208703 0.243781 0.22709 0.23562 0.221358 0.22709 0.208703 0.221358 0.205502 -0.223825 -0.183197 -0.195489 -0.156459 -0.183197 -0.1431 -0.156459 -0.119291 -0.195489 -0.156459 -0.165467 -0.129325 -0.156459 -0.119291 -0.129325 -0.0959387 -0.272221 -0.231654 -0.249613 -0.208507 -0.231654 -0.188556 -0.208507 -0.166456 -0.249613 -0.208507 -0.223825 -0.183197 -0.208507 -0.166456 -0.183197 -0.1431 -0.188556 -0.146364 -0.166456 -0.126377 -0.146364 -0.107583 -0.126377 -0.0903021 -0.166456 -0.126377 -0.1431 -0.105887 -0.126377 -0.0903021 -0.105887 -0.0730674 -0.1431 -0.105887 -0.119291 -0.0856229 -0.105887 -0.0730674 -0.0856229 -0.0564938 -0.119291 -0.0856229 -0.0959387 -0.0663351 -0.0856229 -0.0564938 -0.0663351 -0.0411698 -0.280961 -0.305631 -0.282376 -0.307144 -0.305631 -0.327828 -0.307144 -0.329805 -0.282376 -0.307144 -0.283792 -0.308972 -0.307144 -0.329805 -0.308972 -0.331721 -0.283792 -0.308972 -0.285872 -0.310869 -0.308972 -0.331721 -0.310869 -0.333432 -0.285872 -0.310869 -0.287953 -0.313206 -0.310869 -0.333432 -0.313206 -0.33525 -0.0722272 -0.0625722 -0.0920678 -0.0807371 -0.0625722 -0.0520232 -0.0807371 -0.0681295 -0.0920678 -0.0807371 -0.113357 -0.100561 -0.0807371 -0.0681295 -0.100561 -0.0860338 -0.0871099 -0.0805304 -0.108927 -0.101602 -0.0805304 -0.0722272 -0.101602 -0.0920678 -0.108927 -0.101602 -0.131599 -0.123847 -0.101602 -0.0920678 -0.123847 -0.113357 -0.0474895 -0.0431067 -0.0665346 -0.0609582 -0.0431067 -0.0378113 -0.0609582 -0.0540882 -0.0665346 -0.0609582 -0.0871099 -0.0805304 -0.0609582 -0.0540882 -0.0805304 -0.0722272 -0.0378113 -0.0318688 -0.0540882 -0.0462496 -0.0318688 -0.0255844 -0.0462496 -0.0378266 -0.0540882 -0.0462496 -0.0722272 -0.0625722 -0.0462496 -0.0378266 -0.0625722 -0.0520232 -0.0876307 -0.0836771 -0.107079 -0.102421 -0.0836771 -0.0787822 -0.102421 -0.0961817 -0.107079 -0.102421 -0.126528 -0.120602 -0.102421 -0.0961817 -0.120602 -0.113094 -0.0490394 -0.0464496 -0.068335 -0.0651054 -0.0464496 -0.0434839 -0.0651054 -0.0611367 -0.068335 -0.0651054 -0.0876307 -0.0836771 -0.0651054 -0.0611367 -0.0836771 -0.0787822 -0.0434839 -0.0396993 -0.0611367 -0.0561446 -0.0396993 -0.035108 -0.0561446 -0.0500647 -0.0611367 -0.0561446 -0.0787822 -0.0724503 -0.0561446 -0.0500647 -0.0724503 -0.0648013 -0.0787822 -0.0724503 -0.0961817 -0.088402 -0.0724503 -0.0648013 -0.088402 -0.0790768 -0.0961817 -0.088402 -0.113094 -0.103707 -0.088402 -0.0790768 -0.103707 -0.0926074 0.111497 0.0859471 0.122216 0.099051 0.0859471 0.0611978 0.099051 0.0763057 0.122216 0.099051 0.129363 0.108508 0.099051 0.0763057 0.108508 0.0876842 0.162034 0.137058 0.167498 0.14519 0.137058 0.111497 0.14519 0.122216 0.167498 0.14519 0.169517 0.149818 0.14519 0.122216 0.149818 0.129363 0 0 -0.00295264 -0.000794715 0 0 -0.000794715 0.000492157 -0.00295264 -0.000794715 -0.00833237 -0.00146065 -0.000794715 0.000492157 -0.00146065 0.00293271 -0.00833237 -0.00146065 -0.0105416 0.00079546 -0.00146065 0.00293271 0.00079546 0.00862356 -0.0105416 0.00079546 -0.00697892 0.00763837 0.00079546 0.00862356 0.00763837 0.0182892 -0.0460866 -0.0566373 -0.0559408 -0.0683935 -0.0566373 -0.0664077 -0.0683935 -0.080054 -0.0559408 -0.0683935 -0.0648013 -0.0790768 -0.0683935 -0.080054 -0.0790768 -0.0926074 -0.0236081 -0.0350022 -0.0297118 -0.0429678 -0.0350022 -0.0460866 -0.0429678 -0.0559408 -0.0297118 -0.0429678 -0.035108 -0.0500647 -0.0429678 -0.0559408 -0.0500647 -0.0648013 -0.0104216 -0.0177337 -0.0170235 -0.0264344 -0.0177337 -0.0248208 -0.0264344 -0.0355525 -0.0170235 -0.0264344 -0.0236081 -0.0350022 -0.0264344 -0.0355525 -0.0350022 -0.0460866 -0.0248208 -0.031509 -0.0355525 -0.0441757 -0.031509 -0.0376188 -0.0441757 -0.0520884 -0.0355525 -0.0441757 -0.0460866 -0.0566373 -0.0441757 -0.0520884 -0.0566373 -0.0664077 0.281074 0.26581 0.271794 0.258701 0.26581 0.248584 0.258701 0.243781 0.271794 0.258701 0.25913 0.248228 0.258701 0.243781 0.248228 0.23562 0.305646 0.294343 0.292446 0.283049 0.294343 0.281074 0.283049 0.271794 0.292446 0.283049 0.276396 0.268434 0.283049 0.271794 0.268434 0.25913 0.0482882 0.0628192 0.0656088 0.0817479 0.0628192 0.078458 0.0817479 0.0988394 0.0656088 0.0817479 0.0820396 0.100011 0.0817479 0.0988394 0.100011 0.117983 0.078458 0.0959605 0.0988394 0.117465 0.0959605 0.116341 0.117465 0.138487 0.0988394 0.117465 0.117983 0.138689 0.117465 0.138487 0.138689 0.159394 -0.27145 -0.266886 -0.289945 -0.28399 -0.266886 -0.262323 -0.28399 -0.275909 -0.289945 -0.28399 -0.304024 -0.295529 -0.28399 -0.275909 -0.295529 -0.285017 -0.27626 -0.273855 -0.297881 -0.294567 -0.273855 -0.27145 -0.294567 -0.289945 -0.297881 -0.294567 -0.31586 -0.310665 -0.294567 -0.289945 -0.310665 -0.304024 -0.00320588 -0.00156165 -0.00739624 -0.00406198 -0.00156165 -0.000341508 -0.00406198 -0.00142711 -0.00739624 -0.00406198 -0.0132974 -0.00793872 -0.00406198 -0.00142711 -0.00793872 -0.00350303 -0.0073063 -0.00515796 -0.01535 -0.0112294 -0.00515796 -0.00320588 -0.0112294 -0.00739624 -0.01535 -0.0112294 -0.0255844 -0.0192844 -0.0112294 -0.00739624 -0.0192844 -0.0132974 0 0 -0.00189127 -0.00128119 0 0 -0.00128119 -0.000739611 -0.00189127 -0.00128119 -0.0073063 -0.00515796 -0.00128119 -0.000739611 -0.00515796 -0.00320588 0 0 -0.000739611 -0.000297735 0 0 -0.000297735 1.03388e-05 -0.000739611 -0.000297735 -0.00320588 -0.00156165 -0.000297735 1.03388e-05 -0.00156165 -0.000341508 -0.00697892 0.00763837 0.00288697 0.019374 0.00763837 0.0182892 0.019374 0.0318256 0.00288697 0.019374 0.0183755 0.0354241 0.019374 0.0318256 0.0354241 0.0485273 0.0183755 0.0354241 0.0382627 0.0547694 0.0354241 0.0485273 0.0547694 0.0674475 0.0382627 0.0547694 0.0611978 0.0763057 0.0547694 0.0674475 0.0763057 0.0876842 -0.0178054 -0.0341879 -0.016983 -0.0328266 -0.0341879 -0.0526776 -0.0328266 -0.0506368 -0.016983 -0.0328266 -0.0155147 -0.03043 -0.0328266 -0.0506368 -0.03043 -0.0473531 -0.250226 -0.255676 -0.226973 -0.230492 -0.255676 -0.261205 -0.230492 -0.23599 -0.226973 -0.230492 -0.203719 -0.207458 -0.230492 -0.23599 -0.207458 -0.211197 -0.261205 -0.266538 -0.23599 -0.24214 -0.266538 -0.270661 -0.24214 -0.24817 -0.23599 -0.24214 -0.211197 -0.217421 -0.24214 -0.24817 -0.217421 -0.22415 -0.211197 -0.217421 -0.189733 -0.193785 -0.217421 -0.22415 -0.193785 -0.200193 -0.189733 -0.193785 -0.16827 -0.172599 -0.193785 -0.200193 -0.172599 -0.176928 -0.293846 -0.262007 -0.268085 -0.233809 -0.262007 -0.223825 -0.233809 -0.195489 -0.268085 -0.233809 -0.23796 -0.202589 -0.233809 -0.195489 -0.202589 -0.165467 -0.174889 -0.154332 -0.169921 -0.150609 -0.154332 -0.133775 -0.150609 -0.130152 -0.169921 -0.150609 -0.163641 -0.14545 -0.150609 -0.130152 -0.14545 -0.126528 -0.214025 -0.194457 -0.206007 -0.188893 -0.194457 -0.174889 -0.188893 -0.169921 -0.206007 -0.188893 -0.195689 -0.180688 -0.188893 -0.169921 -0.180688 -0.163641 -0.272221 -0.29124 -0.231654 -0.252051 -0.29124 -0.306608 -0.252051 -0.269347 -0.231654 -0.252051 -0.188556 -0.20875 -0.252051 -0.269347 -0.20875 -0.226527 -0.306608 -0.318483 -0.269347 -0.283412 -0.318483 -0.327148 -0.283412 -0.294271 -0.269347 -0.283412 -0.226527 -0.241548 -0.283412 -0.294271 -0.241548 -0.253696 -0.226527 -0.241548 -0.182311 -0.197185 -0.241548 -0.253696 -0.197185 -0.209542 -0.182311 -0.197185 -0.139979 -0.154122 -0.197185 -0.209542 -0.154122 -0.166061 -0.188556 -0.20875 -0.146364 -0.165192 -0.20875 -0.226527 -0.165192 -0.182311 -0.146364 -0.165192 -0.107583 -0.124316 -0.165192 -0.182311 -0.124316 -0.139979 0 0 1.03388e-05 0.000126302 0 0 0.000126302 -2.67487e-05 1.03388e-05 0.000126302 -0.000341508 0.000320509 0.000126302 -2.67487e-05 0.000320509 0.000150275 0 0 -2.67487e-05 -0.00146325 0 0 -0.00146325 0 -2.67487e-05 -0.00146325 0.000150275 -0.000497665 -0.00146325 0 -0.000497665 0 0.000150275 -0.000497665 0.00101419 0.000823239 -0.000497665 0 0.000823239 0 0.00101419 0.000823239 0.00160635 0.00186531 0.000823239 0 0.00186531 0 -0.000341508 0.000320509 -0.00142711 0.000301324 0.000320509 0.000150275 0.000301324 0.00101419 -0.00142711 0.000301324 -0.00350303 -0.000248747 0.000301324 0.00101419 -0.000248747 0.00160635 -0.0541672 -0.0739632 -0.0333325 -0.0487162 -0.0739632 -0.0959387 -0.0487162 -0.0663351 -0.0333325 -0.0487162 -0.0161845 -0.0276043 -0.0487162 -0.0663351 -0.0276043 -0.0411698 -0.0233574 -0.0371712 -0.0106573 -0.0205804 -0.0371712 -0.0541672 -0.0205804 -0.0333325 -0.0106573 -0.0205804 -0.000562728 -0.00714696 -0.0205804 -0.0333325 -0.00714696 -0.0161845 -0.0558875 -0.0791511 -0.0384137 -0.0566872 -0.0791511 -0.105937 -0.0566872 -0.0784205 -0.0384137 -0.0566872 -0.0233574 -0.0371712 -0.0566872 -0.0784205 -0.0371712 -0.0541672 -0.105937 -0.135151 -0.0784205 -0.102946 -0.135151 -0.165467 -0.102946 -0.129325 -0.0784205 -0.102946 -0.0541672 -0.0739632 -0.102946 -0.129325 -0.0739632 -0.0959387 -0.112921 -0.155687 -0.0939922 -0.133573 -0.155687 -0.198517 -0.133573 -0.175517 -0.0939922 -0.133573 -0.0755569 -0.110819 -0.133573 -0.175517 -0.110819 -0.149999 -0.0645865 -0.104328 -0.0534811 -0.0894672 -0.104328 -0.148968 -0.0894672 -0.131636 -0.0534811 -0.0894672 -0.0428125 -0.0740505 -0.0894672 -0.131636 -0.0740505 -0.112921 0.216361 0.234625 0.1849 0.204669 0.234625 0.251458 0.204669 0.222542 0.1849 0.204669 0.159394 0.178724 0.204669 0.222542 0.178724 0.198054 0.174864 0.196576 0.1417 0.164019 0.196576 0.216361 0.164019 0.1849 0.1417 0.164019 0.116341 0.138487 0.164019 0.1849 0.138487 0.159394 -0.216547 -0.199339 -0.220976 -0.201735 -0.199339 -0.180194 -0.201735 -0.180878 -0.220976 -0.201735 -0.220609 -0.199672 -0.201735 -0.180878 -0.199672 -0.177513 -0.195689 -0.182903 -0.207851 -0.19287 -0.182903 -0.167839 -0.19287 -0.175708 -0.207851 -0.19287 -0.216547 -0.199339 -0.19287 -0.175708 -0.199339 -0.180194 -0.167839 -0.15078 -0.175708 -0.156754 -0.15078 -0.132163 -0.156754 -0.136502 -0.175708 -0.156754 -0.180194 -0.159556 -0.156754 -0.136502 -0.159556 -0.137955 -0.180194 -0.159556 -0.180878 -0.158897 -0.159556 -0.137955 -0.158897 -0.136337 -0.180878 -0.158897 -0.177513 -0.15464 -0.158897 -0.136337 -0.15464 -0.131599 -0.00502958 0.00804721 0.00650305 0.0209614 0.00804721 0.021175 0.0209614 0.0353871 0.00650305 0.0209614 0.0171072 0.0329366 0.0209614 0.0353871 0.0329366 0.0487659 0.021175 0.0345183 0.0353871 0.0503522 0.0345183 0.0482882 0.0503522 0.0656088 0.0353871 0.0503522 0.0487659 0.0654028 0.0503522 0.0656088 0.0654028 0.0820396 0.000562515 0.00253171 -0.000621268 0.00107884 0.00253171 0.00489976 0.00107884 0.00290256 -0.000621268 0.00107884 0 0 0.00107884 0.00290256 0 0 0 -2.2539e-05 0 -0.00164621 -2.2539e-05 0.000562515 -0.00164621 -0.000621268 0 -0.00164621 0 0 -0.00164621 -0.000621268 0 0 0 0.00055766 0 0.000396306 0.00055766 0.00194776 0.000396306 0.00161711 0 0.000396306 0 -2.2539e-05 0.000396306 0.00161711 -2.2539e-05 0.000562515 0.00194776 0.00367754 0.00161711 0.00352222 0.00367754 0.00526344 0.00352222 0.00571427 0.00161711 0.00352222 0.000562515 0.00253171 0.00352222 0.00571427 0.00253171 0.00489976 -0.168261 -0.204123 -0.136275 -0.169506 -0.204123 -0.23796 -0.169506 -0.202589 -0.136275 -0.169506 -0.105937 -0.135151 -0.169506 -0.202589 -0.135151 -0.165467 -0.098789 -0.132507 -0.0759942 -0.104562 -0.132507 -0.168261 -0.104562 -0.136275 -0.0759942 -0.104562 -0.0558875 -0.0791511 -0.104562 -0.136275 -0.0791511 -0.105937 -0.149999 -0.190425 -0.123856 -0.161742 -0.190425 -0.229127 -0.161742 -0.200026 -0.123856 -0.161742 -0.098789 -0.132507 -0.161742 -0.200026 -0.132507 -0.168261 -0.235514 -0.214212 -0.230777 -0.207488 -0.214212 -0.192033 -0.207488 -0.184394 -0.230777 -0.207488 -0.22415 -0.200193 -0.207488 -0.184394 -0.200193 -0.176928 -0.0527319 -0.0507445 -0.0729058 -0.0705715 -0.0507445 -0.0474895 -0.0705715 -0.0665346 -0.0729058 -0.0705715 -0.0941135 -0.0916918 -0.0705715 -0.0665346 -0.0916918 -0.0871099 -0.0941135 -0.0916918 -0.115958 -0.113761 -0.0916918 -0.0871099 -0.113761 -0.108927 -0.115958 -0.113761 -0.137955 -0.136337 -0.113761 -0.108927 -0.136337 -0.131599 -0.0923645 -0.0943219 -0.112508 -0.115505 -0.0943219 -0.0941135 -0.115505 -0.115958 -0.112508 -0.115505 -0.132163 -0.136502 -0.115505 -0.115958 -0.136502 -0.137955 -0.0526776 -0.0533885 -0.0722574 -0.073467 -0.0533885 -0.0527319 -0.073467 -0.0729058 -0.0722574 -0.073467 -0.0923645 -0.0943219 -0.073467 -0.0729058 -0.0943219 -0.0941135 -0.144031 -0.129186 -0.130957 -0.118033 -0.129186 -0.113094 -0.118033 -0.103707 -0.130957 -0.118033 -0.116066 -0.10506 -0.118033 -0.103707 