# vtk DataFile Version 3.0
#This file was generated by the deal.II library on 2020/12/25 at 16:48:50
ASCII
DATASET UNSTRUCTURED_GRID

POINTS 7332 double
0.458332 0.541659 0
0.499999 0.541659 0
0.458332 0.583326 0
0.499999 0.583326 0
0.416666 0.541659 0
0.458332 0.541659 0
0.416666 0.583326 0
0.458332 0.583326 0
0.416666 0.499992 0
0.458332 0.499992 0
0.416666 0.541659 0
0.458332 0.541659 0
0.458332 0.499992 0
0.499999 0.499992 0
0.458332 0.541659 0
0.499999 0.541659 0
0.541666 0.624993 0
0.583332 0.624993 0
0.541666 0.66666 0
0.583332 0.66666 0
0.499999 0.624993 0
0.541666 0.624993 0
0.499999 0.66666 0
0.541666 0.66666 0
0.499999 0.583326 0
0.541666 0.583326 0
0.499999 0.624993 0
0.541666 0.624993 0
0.541666 0.583326 0
0.583332 0.583326 0
0.541666 0.624993 0
0.583332 0.624993 0
0.499999 0.541659 0
0.541666 0.541659 0
0.499999 0.583326 0
0.541666 0.583326 0
0.499999 0.499992 0
0.541666 0.499992 0
0.499999 0.541659 0
0.541666 0.541659 0
0.541666 0.499992 0
0.583332 0.499992 0
0.541666 0.541659 0
0.583332 0.541659 0
0.541666 0.541659 0
0.583332 0.541659 0
0.541666 0.583326 0
0.583332 0.583326 0
0.499999 0.458326 0
0.499999 0.416659 0
0.541666 0.458326 0
0.541666 0.416659 0
0.541666 0.458326 0
0.541666 0.416659 0
0.583332 0.458326 0
0.583332 0.416659 0
0.541666 0.499992 0
0.541666 0.458326 0
0.583332 0.499992 0
0.583332 0.458326 0
0.499999 0.499992 0
0.499999 0.458326 0
0.541666 0.499992 0
0.541666 0.458326 0
0.499999 0.374993 0
0.541666 0.374993 0
0.499999 0.416659 0
0.541666 0.416659 0
0.499999 0.333326 0
0.541666 0.333326 0
0.499999 0.374993 0
0.541666 0.374993 0
0.541666 0.333326 0
0.583332 0.333327 0
0.541666 0.374993 0
0.583332 0.374993 0
0.541666 0.374993 0
0.583332 0.374993 0
0.541666 0.416659 0
0.583332 0.416659 0
0.458332 0.499992 0
0.458332 0.458326 0
0.499999 0.499992 0
0.499999 0.458326 0
0.416666 0.499992 0
0.416666 0.458326 0
0.458332 0.499992 0
0.458332 0.458326 0
0.416666 0.458326 0
0.416666 0.416659 0
0.458332 0.458326 0
0.458332 0.416659 0
0.458332 0.458326 0
0.458332 0.416659 0
0.499999 0.458326 0
0.499999 0.416659 0
0.541666 0.333326 0
0.541666 0.29166 0
0.583332 0.333327 0
0.583333 0.29166 0
0.499999 0.333326 0
0.499999 0.29166 0
0.541666 0.333326 0
0.541666 0.29166 0
0.708333 0.458327 0
0.708333 0.41666 0
0.749999 0.458328 0
0.749999 0.416661 0
0.708332 0.499994 0
0.708333 0.458327 0
0.749999 0.499994 0
0.749999 0.458328 0
0.666666 0.499993 0
0.666666 0.458327 0
0.708332 0.499994 0
0.708333 0.458327 0
0.666666 0.458327 0
0.666666 0.41666 0
0.708333 0.458327 0
0.708333 0.41666 0
0.416666 0.583326 0
0.458332 0.583326 0
0.416666 0.624993 0
0.458332 0.624993 0
0.458332 0.583326 0
0.499999 0.583326 0
0.458332 0.624993 0
0.499999 0.624993 0
0.458332 0.624993 0
0.499999 0.624993 0
0.458332 0.66666 0
0.499999 0.66666 0
0.416666 0.624993 0
0.458332 0.624993 0
0.416666 0.66666 0
0.458332 0.66666 0
0.458333 0.708327 0
0.499999 0.708327 0
0.458333 0.749994 0
0.499999 0.749994 0
0.416666 0.708327 0
0.458333 0.708327 0
0.416666 0.749994 0
0.458333 0.749994 0
0.416666 0.66666 0
0.458332 0.66666 0
0.416666 0.708327 0
0.458333 0.708327 0
0.458332 0.66666 0
0.499999 0.66666 0
0.458333 0.708327 0
0.499999 0.708327 0
0.458332 0.333326 0
0.499999 0.333326 0
0.458332 0.374993 0
0.499999 0.374993 0
0.458332 0.374993 0
0.499999 0.374993 0
0.458332 0.416659 0
0.499999 0.416659 0
0.416666 0.374993 0
0.458332 0.374993 0
0.416666 0.416659 0
0.458332 0.416659 0
0.416666 0.333327 0
0.458332 0.333326 0
0.416666 0.374993 0
0.458332 0.374993 0
0.374999 0.374993 0
0.374999 0.416659 0
0.333332 0.374993 0
0.333332 0.41666 0
0.374999 0.333327 0
0.374999 0.374993 0
0.333333 0.333327 0
0.333332 0.374993 0
0.416666 0.333327 0
0.416666 0.374993 0
0.374999 0.333327 0
0.374999 0.374993 0
0.416666 0.374993 0
0.416666 0.416659 0
0.374999 0.374993 0
0.374999 0.416659 0
0.791666 0.791664 0
0.791666 0.833331 0
0.75 0.791663 0
0.75 0.83333 0
0.791666 0.749997 0
0.791666 0.791664 0
0.749999 0.749996 0
0.75 0.791663 0
0.291666 0.624994 0
0.291666 0.666661 0
0.249999 0.624995 0
0.249999 0.666662 0
0.291666 0.583327 0
0.291666 0.624994 0
0.249999 0.583328 0
0.249999 0.624995 0
0.333332 0.583326 0
0.333332 0.624994 0
0.291666 0.583327 0
0.291666 0.624994 0
0.333332 0.624994 0
0.333333 0.666661 0
0.291666 0.624994 0
0.291666 0.666661 0
0.416666 0.333327 0
0.374999 0.333327 0
0.416666 0.29166 0
0.374999 0.291661 0
0.374999 0.333327 0
0.333333 0.333327 0
0.374999 0.291661 0
0.333333 0.291661 0
0.624999 0.66666 0
0.624999 0.708328 0
0.583332 0.66666 0
0.583333 0.708327 0
0.666666 0.666661 0
0.666666 0.708328 0
0.624999 0.66666 0
0.624999 0.708328 0
0.666666 0.708328 0
0.666666 0.749995 0
0.624999 0.708328 0
0.624999 0.749995 0
0.624999 0.708328 0
0.624999 0.749995 0
0.583333 0.708327 0
0.583333 0.749995 0
0.541667 0.0416655 0
0.541667 0 0
0.583333 0.0416656 0
0.583333 0 0
0.541666 0.0833311 0
0.541667 0.0416655 0
0.583333 0.0833311 0
0.583333 0.0416656 0
0.5 0.0833311 0
0.5 0.0416655 0
0.541666 0.0833311 0
0.541667 0.0416655 0
0.5 0.0416655 0
0.5 0 0
0.541667 0.0416655 0
0.541667 0 0
0.666666 0.374994 0
0.708333 0.374994 0
0.666666 0.41666 0
0.708333 0.41666 0
0.333333 0.333327 0
0.333332 0.374993 0
0.291666 0.333328 0
0.291666 0.374994 0
0.333332 0.374993 0
0.333332 0.41666 0
0.291666 0.374994 0
0.291666 0.41666 0
0.791666 0.70833 0
0.791666 0.749997 0
0.749999 0.708329 0
0.749999 0.749996 0
0.791666 0.666663 0
0.791666 0.70833 0
0.749999 0.666662 0
0.749999 0.708329 0
0.666666 0.458327 0
0.624999 0.458326 0
0.666666 0.41666 0
0.624999 0.41666 0
0.666666 0.499993 0
0.624999 0.499993 0
0.666666 0.458327 0
0.624999 0.458326 0
0.624999 0.499993 0
0.583332 0.499992 0
0.624999 0.458326 0
0.583332 0.458326 0
0.624999 0.458326 0
0.583332 0.458326 0
0.624999 0.41666 0
0.583332 0.416659 0
0.291666 0.499994 0
0.249999 0.499994 0
0.291666 0.458327 0
0.249999 0.458327 0
0.291666 0.458327 0
0.249999 0.458327 0
0.291666 0.41666 0
0.249999 0.416661 0
0.333332 0.458326 0
0.291666 0.458327 0
0.333332 0.41666 0
0.291666 0.41666 0
0.333332 0.499993 0
0.291666 0.499994 0
0.333332 0.458326 0
0.291666 0.458327 0
0.708333 0.666661 0
0.749999 0.666662 0
0.708333 0.708328 0
0.749999 0.708329 0
0.708333 0.708328 0
0.749999 0.708329 0
0.708333 0.749996 0
0.749999 0.749996 0
0.666666 0.708328 0
0.708333 0.708328 0
0.666666 0.749995 0
0.708333 0.749996 0
0.666666 0.666661 0
0.708333 0.666661 0
0.666666 0.708328 0
0.708333 0.708328 0
0.374999 0.749995 0
0.374999 0.791662 0
0.333333 0.749995 0
0.333333 0.791662 0
0.416666 0.749994 0
0.416666 0.791662 0
0.374999 0.749995 0
0.374999 0.791662 0
0.791666 0.541662 0
0.791666 0.583329 0
0.749999 0.541661 0
0.749999 0.583328 0
0.416666 0.0833311 0
0.375 0.0833312 0
0.416667 0.0416656 0
0.375 0.0416656 0
0.375 0.0833312 0
0.333333 0.0833314 0
0.375 0.0416656 0
0.333333 0.0416657 0
0.375 0.0416656 0
0.333333 0.0416657 0
0.375 0 0
0.333333 0 0
0.416667 0.0416656 0
0.375 0.0416656 0
0.416667 0 0
0.375 0 0
0.416666 0.749994 0
0.458333 0.749994 0
0.416666 0.791662 0
0.458333 0.791662 0
0.458333 0.749994 0
0.499999 0.749994 0
0.458333 0.791662 0
0.499999 0.791662 0
0.458333 0.791662 0
0.499999 0.791662 0
0.458333 0.833329 0
0.499999 0.833329 0
0.416666 0.791662 0
0.458333 0.791662 0
0.416666 0.833329 0
0.458333 0.833329 0
0.666666 0.624994 0
0.708333 0.624994 0
0.666666 0.666661 0
0.708333 0.666661 0
0.666666 0.583327 0
0.708333 0.583327 0
0.666666 0.624994 0
0.708333 0.624994 0
0.708333 0.583327 0
0.749999 0.583328 0
0.708333 0.624994 0
0.749999 0.624995 0
0.708333 0.624994 0
0.749999 0.624995 0
0.708333 0.666661 0
0.749999 0.666662 0
0.791666 0.624996 0
0.791666 0.666663 0
0.749999 0.624995 0
0.749999 0.666662 0
0.791666 0.583329 0
0.791666 0.624996 0
0.749999 0.583328 0
0.749999 0.624995 0
0.374999 0.499993 0
0.333332 0.499993 0
0.374999 0.458326 0
0.333332 0.458326 0
0.374999 0.458326 0
0.333332 0.458326 0
0.374999 0.416659 0
0.333332 0.41666 0
0.416666 0.458326 0
0.374999 0.458326 0
0.416666 0.416659 0
0.374999 0.416659 0
0.416666 0.499992 0
0.374999 0.499993 0
0.416666 0.458326 0
0.374999 0.458326 0
0.624999 0.54166 0
0.624999 0.583326 0
0.583332 0.541659 0
0.583332 0.583326 0
0.624999 0.499993 0
0.624999 0.54166 0
0.583332 0.499992 0
0.583332 0.541659 0
0.666666 0.499993 0
0.666666 0.54166 0
0.624999 0.499993 0
0.624999 0.54166 0
0.666666 0.54166 0
0.666666 0.583327 0
0.624999 0.54166 0
0.624999 0.583326 0
0.624999 0.333327 0
0.624999 0.374993 0
0.583332 0.333327 0
0.583332 0.374993 0
0.666666 0.333327 0
0.666666 0.374994 0
0.624999 0.333327 0
0.624999 0.374993 0
0.666666 0.374994 0
0.666666 0.41666 0
0.624999 0.374993 0
0.624999 0.41666 0
0.624999 0.374993 0
0.624999 0.41666 0
0.583332 0.374993 0
0.583332 0.416659 0
0.416666 0.499992 0
0.416666 0.541659 0
0.374999 0.499993 0
0.374999 0.541659 0
0.416666 0.541659 0
0.416666 0.583326 0
0.374999 0.541659 0
0.374999 0.583326 0
0.374999 0.541659 0
0.374999 0.583326 0
0.333332 0.54166 0
0.333332 0.583326 0
0.374999 0.499993 0
0.374999 0.541659 0
0.333332 0.499993 0
0.333332 0.54166 0
0.624999 0.333327 0
0.583332 0.333327 0
0.624999 0.291661 0
0.583333 0.29166 0
0.416666 0.624993 0
0.416666 0.66666 0
0.374999 0.624993 0
0.374999 0.66666 0
0.374999 0.624993 0
0.374999 0.66666 0
0.333332 0.624994 0
0.333333 0.666661 0
0.374999 0.583326 0
0.374999 0.624993 0
0.333332 0.583326 0
0.333332 0.624994 0
0.416666 0.583326 0
0.416666 0.624993 0
0.374999 0.583326 0
0.374999 0.624993 0
0.666666 0.54166 0
0.708333 0.541661 0
0.666666 0.583327 0
0.708333 0.583327 0
0.666666 0.499993 0
0.708332 0.499994 0
0.666666 0.54166 0
0.708333 0.541661 0
0.708332 0.499994 0
0.749999 0.499994 0
0.708333 0.541661 0
0.749999 0.541661 0
0.708333 0.541661 0
0.749999 0.541661 0
0.708333 0.583327 0
0.749999 0.583328 0
0.458332 0.333326 0
0.458332 0.29166 0
0.499999 0.333326 0
0.499999 0.29166 0
0.416666 0.333327 0
0.416666 0.29166 0
0.458332 0.333326 0
0.458332 0.29166 0
0.416666 0.708327 0
0.416666 0.749994 0
0.374999 0.708328 0
0.374999 0.749995 0
0.374999 0.708328 0
0.374999 0.749995 0
0.333333 0.708328 0
[...]
POINT_DATA 7332
SCALARS solution_0 double 1
LOOKUP_TABLE default
-0.0185211 -0.0221834 0.017138 0.0135262 -0.015399 -0.0185211 0.0200908 0.017138 -0.0504039 -0.0533895 -0.015399 -0.0185211 -0.0533895 -0.0568842 -0.0185211 -0.0221834 0.0461438 0.0403535 0.0850111 0.0788423 0.0506133 0.0461438 0.0894096 0.0850111 0.0135262 0.0091092 0.0506133 0.0461438 0.0091092 0.00373746 0.0461438 0.0403535 -0.0221834 -0.0264428 0.0135262 0.0091092 -0.0568842 -0.0608325 -0.0221834 -0.0264428 -0.0608325 -0.0651466 -0.0264428 -0.031334 -0.0264428 -0.031334 0.0091092 0.00373746 -0.0910668 -0.125733 -0.0944873 -0.128455 -0.0944873 -0.128455 -0.0981431 -0.131566 -0.0608325 -0.0944873 -0.0651466 -0.0981431 -0.0568842 -0.0910668 -0.0608325 -0.0944873 -0.162587 -0.164754 -0.125733 -0.128455 -0.202862 -0.205151 -0.162587 -0.164754 -0.205151 -0.208551 -0.164754 -0.167741 -0.164754 -0.167741 -0.128455 -0.131566 -0.0533895 -0.0880505 -0.0568842 -0.0910668 -0.0504039 -0.085556 -0.0533895 -0.0880505 -0.085556 -0.121744 -0.0880505 -0.12349 -0.0880505 -0.12349 -0.0910668 -0.125733 -0.205151 -0.247213 -0.208551 -0.251016 -0.202862 -0.244109 -0.205151 -0.247213 -0.111412 -0.146613 -0.119481 -0.156499 -0.0796305 -0.111412 -0.0865598 -0.119481 -0.0744228 -0.106039 -0.0796305 -0.111412 -0.106039 -0.139826 -0.111412 -0.146613 0.0200908 0.017138 0.0564718 0.0539956 0.017138 0.0135262 0.0539956 0.0506133 0.0539956 0.0506133 0.0923107 0.0894096 0.0564718 0.0539956 0.0938602 0.0923107 0.131921 0.129943 0.171777 0.171432 0.131835 0.131921 0.169054 0.171777 0.0938602 0.0923107 0.131835 0.131921 0.0923107 0.0894096 0.131921 0.129943 -0.20116 -0.202862 -0.16104 -0.162587 -0.16104 -0.162587 -0.12349 -0.125733 -0.159788 -0.16104 -0.121744 -0.12349 -0.199224 -0.20116 -0.159788 -0.16104 -0.158033 -0.120153 -0.154157 -0.117752 -0.195639 -0.158033 -0.188314 -0.154157 -0.199224 -0.159788 -0.195639 -0.158033 -0.159788 -0.121744 -0.158033 -0.120153 0.100079 0.136783 0.130893 0.168884 0.0692808 0.100079 0.0962211 0.130893 0.0568865 0.0877204 0.0535368 0.0808329 0.0244201 0.0568865 0.0239093 0.0535368 0.0239563 0.0583506 0.0244201 0.0568865 0.0583506 0.0920796 0.0568865 0.0877204 -0.199224 -0.195639 -0.236336 -0.228548 -0.195639 -0.188314 -0.228548 -0.216207 0.0706157 0.11019 0.0788423 0.119378 0.0600979 0.0979262 0.0706157 0.11019 0.0979262 0.137401 0.11019 0.151445 0.11019 0.151445 0.119378 0.16153 -0.0768876 0 -0.0686705 0 -0.143374 -0.0768876 -0.130724 -0.0686705 -0.14793 -0.0795101 -0.143374 -0.0768876 -0.0795101 0 -0.0768876 0 -0.177922 -0.186011 -0.139826 -0.146613 -0.188314 -0.154157 -0.176106 -0.146316 -0.154157 -0.117752 -0.146316 -0.1127 0.0409968 0.0692808 0.0632951 0.0962211 0.0140236 0.0409968 0.0318549 0.0632951 -0.106039 -0.101943 -0.139826 -0.135146 -0.0744228 -0.0697017 -0.106039 -0.101943 -0.0697017 -0.0651466 -0.101943 -0.0981431 -0.101943 -0.0981431 -0.135146 -0.131566 -0.0432541 -0.0395786 -0.0779866 -0.0721097 -0.0779866 -0.0721097 -0.1127 -0.104099 -0.0813455 -0.0779866 -0.117752 -0.1127 -0.0457061 -0.0432541 -0.0813455 -0.0779866 0.0471678 0.0318549 0.0823184 0.0632951 0.0823184 0.0632951 0.119028 0.0962211 0.0979262 0.0823184 0.137401 0.119028 0.0600979 0.0471678 0.0979262 0.0823184 0.16294 0.192556 0.153221 0.177518 0.169054 0.203197 0.16294 0.192556 -0.0668922 -0.0390683 -0.0565674 -0.027517 -0.134573 -0.118385 -0.0686402 -0.0577205 -0.118385 -0.0982005 -0.0577205 -0.0451722 -0.0577205 -0.0451722 0 0 -0.0686402 -0.0577205 0 0 0.169054 0.171777 0.203197 0.209587 0.171777 0.171432 0.209587 0.211817 0.209587 0.211817 0.242609 0.247994 0.203197 0.209587 0.23193 0.242609 0.0241592 0.0136938 0.0600979 0.0471678 -0.0100349 -0.018261 0.0241592 0.0136938 -0.018261 -0.027517 0.0136938 0.00172467 0.0136938 0.00172467 0.0471678 0.0318549 -0.0123533 0.0140236 0.00172467 0.0318549 -0.0390683 -0.0123533 -0.027517 0.00172467 -0.0479098 -0.0457061 -0.0834942 -0.0813455 -0.0834942 -0.0813455 -0.120153 -0.117752 -0.085556 -0.0834942 -0.121744 -0.120153 -0.0504039 -0.0479098 -0.085556 -0.0834942 -0.0368132 -0.00265879 -0.031334 0.00373746 -0.0697017 -0.0368132 -0.0651466 -0.031334 -0.0744228 -0.0427516 -0.0697017 -0.0368132 -0.0427516 -0.0100349 -0.0368132 -0.00265879 -0.213466 -0.171962 -0.208551 -0.167741 -0.219829 -0.177922 -0.213466 -0.171962 -0.177922 -0.139826 -0.171962 -0.135146 -0.171962 -0.135146 -0.167741 -0.131566 -0.0504039 -0.015399 -0.0479098 -0.0127921 -0.015399 0.0200908 -0.0127921 0.0224166 -0.0127921 0.0224166 -0.0106994 0.0239563 -0.0479098 -0.0127921 -0.0457061 -0.0106994 -0.213466 -0.208551 -0.255578 -0.251016 0.0564718 0.0938602 0.0580215 0.0939377 0.0580215 0.0939377 0.0583506 0.0920796 0.0224166 0.0580215 0.0239563 0.0583506 0.0200908 0.0564718 0.0224166 0.0580215 -0.0427516 -0.0491094 -0.0100349 -0.018261 -0.0744228 -0.0796305 -0.0427516 -0.0491094 -0.0796305 -0.0865598 -0.0491094 -0.0565674 -0.0491094 -0.0565674 -0.018261 -0.027517 -0.20116 -0.240911 -0.202862 -0.244109 -0.199224 -0.236336 -0.20116 -0.240911 0.131835 0.169054 0.129456 0.16294 0.129456 0.16294 0.124245 0.153221 0.0939377 0.129456 0.0920796 0.124245 0.0938602 0.131835 0.0939377 0.129456 -0.0100349 0.0241592 -0.00265879 0.0330549 0.0241592 0.0600979 0.0330549 0.0706157 0.0330549 0.0706157 0.0403535 0.0788423 -0.00265879 0.0330549 0.00373746 0.0403535 0.0894096 0.0850111 0.129943 0.125847 0.0850111 0.0788423 0.125847 0.119378 0.125847 0.119378 0.168076 0.16153 0.129943 0.125847 0.171432 0.168076 0.124245 0.153221 0.115875 0.139979 0.0920796 0.124245 0.0877204 0.115875 -0.0457061 -0.0106994 -0.0432541 -0.00905662 -0.0106994 0.0239563 -0.00905662 0.0244201 -0.00905662 0.0244201 -0.0073642 0.0239093 -0.0432541 -0.00905662 -0.0395786 -0.0073642 -0.134573 -0.0686402 -0.144812 -0.0764887 -0.0686402 0 -0.0764887 0 -0.0764887 0 -0.0795101 0 -0.144812 -0.0764887 -0.14793 -0.0795101 0.209893 0.203737 0.248239 0.243257 0.211817 0.209893 0.247994 0.248239 0.171432 0.168076 0.211817 0.209893 0.168076 0.16153 0.209893 0.203737 0.193075 0.23294 0.203737 0.243257 0.151445 0.193075 0.16153 0.203737 0.137401 0.177543 0.151445 0.193075 0.177543 0.217121 0.193075 0.23294 0.156834 0.130893 0.195708 0.168884 0.177543 0.156834 0.217121 0.195708 0.137401 0.119028 0.177543 0.156834 0.119028 0.0962211 0.156834 0.130893 -0.0238686 -0.0165768 -0.0323353 -0.0231647 -0.0165768 -0.0100835 -0.0231647 -0.0148525 -0.0323353 -0.0231647 -0.0421157 -0.0309768 -0.0231647 -0.0148525 -0.0309768 -0.0207103 -0.0393944 -0.0315969 -0.0514376 -0.0419104 -0.0315969 -0.0238686 -0.0419104 -0.0323353 -0.0514376 -0.0419104 -0.0648193 -0.0535765 -0.0419104 -0.0323353 -0.0535765 -0.0421157 -0.0195082 -0.0150711 -0.0287443 -0.0226537 -0.0150711 -0.0108039 -0.0226537 -0.0167033 -0.0287443 -0.0226537 -0.0393944 -0.0315969 -0.0226537 -0.0167033 -0.0315969 -0.0238686 -0.0108039 -0.00691988 -0.0167033 -0.0111814 -0.00691988 -0.00362421 -0.0111814 -0.00636516 -0.0167033 -0.0111814 -0.0238686 -0.0165768 -0.0111814 -0.00636516 -0.0165768 -0.0100835 -0.119256 -0.101625 -0.108099 -0.0912879 -0.101625 -0.0846546 -0.0912879 -0.0753322 -0.108099 -0.0912879 -0.0950261 -0.0794163 -0.0912879 -0.0753322 -0.0794163 -0.0648193 -0.155137 -0.13721 -0.143012 -0.125455 -0.13721 -0.119256 -0.125455 -0.108099 -0.143012 -0.125455 -0.128134 -0.111374 -0.125455 -0.108099 -0.111374 -0.0950261 -0.16943 -0.152067 -0.164044 -0.146185 -0.152067 -0.134176 -0.146185 -0.128054 -0.164044 -0.146185 -0.155137 -0.13721 -0.146185 -0.128054 -0.13721 -0.119256 -0.134176 -0.116116 -0.128054 -0.110007 -0.116116 -0.0982499 -0.110007 -0.0923958 -0.128054 -0.110007 -0.119256 -0.101625 -0.110007 -0.0923958 -0.101625 -0.0846546 0.163873 0.144732 0.166063 0.148779 0.144732 0.124715 0.148779 0.130616 0.166063 0.148779 0.165565 0.150153 0.148779 0.130616 0.150153 0.133862 0.198612 0.181894 0.19718 0.182251 0.181894 0.163873 0.182251 0.166063 0.19718 0.182251 0.19302 0.179897 0.182251 0.166063 0.179897 0.165565 0.200099 0.179634 0.1979 0.179396 0.179634 0.157903 0.179396 0.15957 0.1979 0.179396 0.198612 0.181894 0.179396 0.15957 0.181894 0.163873 0.157903 0.135105 0.15957 0.138618 0.135105 0.111508 0.138618 0.116804 0.15957 0.138618 0.163873 0.144732 0.138618 0.116804 0.144732 0.124715 -0.174676 -0.143364 -0.152815 -0.123 -0.143364 -0.112891 -0.123 -0.0947615 -0.152815 -0.123 -0.129886 -0.102357 -0.123 -0.0947615 -0.102357 -0.0769091 -0.212497 -0.180507 -0.19474 -0.16273 -0.180507 -0.147472 -0.16273 -0.130656 -0.19474 -0.16273 -0.174676 -0.143364 -0.16273 -0.130656 -0.143364 -0.112891 -0.147472 -0.115583 -0.130656 -0.100366 -0.115583 -0.0863584 -0.100366 -0.0731019 -0.130656 -0.100366 -0.112891 -0.0847144 -0.100366 -0.0731019 -0.0847144 -0.059793 -0.112891 -0.0847144 -0.0947615 -0.0691565 -0.0847144 -0.059793 -0.0691565 -0.0468875 -0.0947615 -0.0691565 -0.0769091 -0.0542372 -0.0691565 -0.0468875 -0.0542372 -0.0348295 -0.244109 -0.262931 -0.245661 -0.264819 -0.262931 -0.277834 -0.264819 -0.280147 -0.245661 -0.264819 -0.247213 -0.266691 -0.264819 -0.280147 -0.266691 -0.282036 -0.247213 -0.266691 -0.249114 -0.268403 -0.266691 -0.282036 -0.268403 -0.28356 -0.249114 -0.268403 -0.251016 -0.27021 -0.268403 -0.28356 -0.27021 -0.284632 -0.0537646 -0.0468979 -0.0686296 -0.060479 -0.0468979 -0.0393944 -0.060479 -0.0514376 -0.0686296 -0.060479 -0.0846546 -0.0753322 -0.060479 -0.0514376 -0.0753322 -0.0648193 -0.0644136 -0.0596879 -0.0809194 -0.0755378 -0.0596879 -0.0537646 -0.0755378 -0.0686296 -0.0809194 -0.0755378 -0.0982499 -0.0923958 -0.0755378 -0.0686296 -0.0923958 -0.0846546 -0.0347094 -0.0316862 -0.0489531 -0.0450269 -0.0316862 -0.0280232 -0.0450269 -0.0401981 -0.0489531 -0.0450269 -0.0644136 -0.0596879 -0.0450269 -0.0401981 -0.0596879 -0.0537646 -0.0280232 -0.023897 -0.0401981 -0.0346855 -0.023897 -0.0195082 -0.0346855 -0.0287443 -0.0401981 -0.0346855 -0.0537646 -0.0468979 -0.0346855 -0.0287443 -0.0468979 -0.0393944 0.0282621 0.0430015 0.0478964 0.0632818 0.0430015 0.0614608 0.0632818 0.0822725 0.0478964 0.0632818 0.066228 0.0822826 0.0632818 0.0822725 0.0822826 0.101514 0.00479263 0.0158313 0.0228628 0.0347148 0.0158313 0.0282621 0.0347148 0.0478964 0.0228628 0.0347148 0.0393458 0.052188 0.0347148 0.0478964 0.052188 0.066228 -0.0344311 -0.0267675 -0.0151043 -0.00509059 -0.0267675 -0.0173211 -0.00509059 0.00646104 -0.0151043 -0.00509059 0.00479263 0.0158313 -0.00509059 0.00646104 0.0158313 0.0282621 -0.0173211 -0.00524202 0.00646104 0.0204111 -0.00524202 0.0106798 0.0204111 0.0380754 0.00646104 0.0204111 0.0282621 0.0430015 0.0204111 0.0380754 0.0430015 0.0614608 -0.0721097 -0.0679325 -0.0881044 -0.083162 -0.0679325 -0.0629727 -0.083162 -0.0768421 -0.0881044 -0.083162 -0.104099 -0.0976537 -0.083162 -0.0768421 -0.0976537 -0.0900669 -0.0395786 -0.0371023 -0.0558441 -0.0526348 -0.0371023 -0.0342667 -0.0526348 -0.0486991 -0.0558441 -0.0526348 -0.0721097 -0.0679325 -0.0526348 -0.0486991 -0.0679325 -0.0629727 -0.0342667 -0.0307824 -0.0486991 -0.0439934 -0.0307824 -0.0267089 -0.0439934 -0.0385331 -0.0486991 -0.0439934 -0.0629727 -0.0569541 -0.0439934 -0.0385331 -0.0569541 -0.0500686 -0.0629727 -0.0569541 -0.0768421 -0.0694578 -0.0569541 -0.0500686 -0.0694578 -0.0611048 -0.0768421 -0.0694578 -0.0900669 -0.0812531 -0.0694578 -0.0611048 -0.0812531 -0.0714087 0.416436 0.433831 0.657233 0.669824 0.433831 0.449833 0.669824 0.681286 0.657233 0.669824 1 1 0.669824 0.681286 1 1 0.267117 0.279946 0.304279 0.320081 0.279946 0.291217 0.320081 0.334429 0.304279 0.320081 0.416436 0.433831 0.320081 0.334429 0.433831 0.449833 0.291217 0.300966 0.334429 0.347344 0.300966 0.30924 0.347344 0.358855 0.334429 0.347344 0.449833 0.464441 0.347344 0.358855 0.464441 0.477669 0.449833 0.464441 0.681286 0.691627 0.464441 0.477669 0.691627 0.700868 0.681286 0.691627 1 1 0.691627 0.700868 1 1 0.111508 0.0874652 0.116804 0.0944723 0.0874652 0.063435 0.0944723 0.0720694 0.116804 0.0944723 0.124715 0.104134 0.0944723 0.0720694 0.104134 0.0833881 0.063435 0.0400015 0.0720694 0.0501664 0.0400015 0.0178953 0.0501664 0.0294797 0.0720694 0.0501664 0.0833881 0.0629862 0.0501664 0.0294797 0.0629862 0.0435653 0.0833881 0.0629862 0.0928024 0.0739117 0.0629862 0.0435653 0.0739117 0.0556986 0.0928024 0.0739117 0.0995956 0.0822249 0.0739117 0.0556986 0.0822249 0.0652084 0.124715 0.104134 0.130616 0.111844 0.104134 0.0833881 0.111844 0.0928024 0.130616 0.111844 0.133862 0.116917 0.111844 0.0928024 0.116917 0.0995956 -0.0255885 -0.0151249 -0.0357148 -0.0214941 -0.0151249 -0.00720557 -0.0214941 -0.00958531 -0.0357148 -0.0214941 -0.0368434 -0.021816 -0.0214941 -0.00958531 -0.021816 -0.00749244 0 0 -0.00952468 -0.00525005 0 0 -0.00525005 -0.00251955 -0.00952468 -0.00525005 -0.0255885 -0.0151249 -0.00525005 -0.00251955 -0.0151249 -0.00720557 0 0 -0.00251955 -0.000828131 0 0 -0.000828131 0.000213253 -0.00251955 -0.000828131 -0.00720557 -0.00191107 -0.000828131 0.000213253 -0.00191107 0.00159625 -0.00720557 -0.00191107 -0.00958531 -0.000880194 -0.00191107 0.00159625 -0.000880194 0.00527282 -0.00958531 -0.000880194 -0.00749244 0.00365211 -0.000880194 0.00527282 0.00365211 0.0119683 -0.0343158 -0.0423049 -0.0424567 -0.0519752 -0.0423049 -0.0496265 -0.0519752 -0.0607737 -0.0424567 -0.0519752 -0.0500686 -0.0611048 -0.0519752 -0.0607737 -0.0611048 -0.0714087 -0.0170823 -0.0258479 -0.0220997 -0.0324321 -0.0258479 -0.0343158 -0.0324321 -0.0424567 -0.0220997 -0.0324321 -0.0267089 -0.0385331 -0.0324321 -0.0424567 -0.0385331 -0.0500686 -0.00699525 -0.0124304 -0.0119004 -0.0190371 -0.0124304 -0.0176866 -0.0190371 -0.025919 -0.0119004 -0.0190371 -0.0170823 -0.0258479 -0.0190371 -0.025919 -0.0258479 -0.0343158 -0.0176866 -0.0226274 -0.025919 -0.0323861 -0.0226274 -0.0271179 -0.0323861 -0.038276 -0.025919 -0.0323861 -0.0343158 -0.0423049 -0.0323861 -0.038276 -0.0423049 -0.0496265 0.227642 0.213895 0.222804 0.210734 0.213895 0.198612 0.210734 0.19718 0.222804 0.210734 0.215161 0.204814 0.210734 0.19718 0.204814 0.19302 0.250277 0.23977 0.242261 0.23333 0.23977 0.227642 0.23333 0.222804 0.242261 0.23333 0.23193 0.224115 0.23333 0.222804 0.224115 0.215161 0.267117 0.252706 0.25646 0.244267 0.252706 0.236711 0.244267 0.230418 0.25646 0.244267 0.250277 0.23977 0.244267 0.230418 0.23977 0.227642 0.236711 0.219156 0.230418 0.214941 0.219156 0.200099 0.214941 0.1979 0.230418 0.214941 0.227642 0.213895 0.214941 0.1979 0.213895 0.198612 -0.220639 -0.229324 -0.220237 -0.234813 -0.229324 -0.232336 -0.234813 -0.243123 -0.220237 -0.234813 -0.212844 -0.233008 -0.234813 -0.243123 -0.233008 -0.246988 -0.212844 -0.233008 -0.198859 -0.223542 -0.233008 -0.246988 -0.223542 -0.242797 -0.198859 -0.223542 -0.179502 -0.207054 -0.223542 -0.242797 -0.207054 -0.230439 -0.155487 -0.186602 -0.137375 -0.169562 -0.186602 -0.212844 -0.169562 -0.198859 -0.137375 -0.169562 -0.117672 -0.149074 -0.169562 -0.198859 -0.149074 -0.179502 -0.1812 -0.20479 -0.170519 -0.198673 -0.20479 -0.220639 -0.198673 -0.220237 -0.170519 -0.198673 -0.155487 -0.186602 -0.198673 -0.220237 -0.186602 -0.212844 0.0393458 0.052188 0.0547488 0.0686907 0.052188 0.066228 0.0686907 0.0837086 0.0547488 0.0686907 0.0692808 0.08468 0.0686907 0.0837086 0.08468 0.100079 0.066228 0.0822826 0.0837086 0.100374 0.0822826 0.101514 0.100374 0.119639 0.0837086 0.100374 0.100079 0.118431 0.100374 0.119639 0.118431 0.136783 -0.228548 -0.222377 -0.24038 -0.233007 -0.222377 -0.216207 -0.233007 -0.223809 -0.24038 -0.233007 -0.24797 -0.238652 -0.233007 -0.223809 -0.238652 -0.227793 -0.236336 -0.232442 -0.251309 -0.246547 -0.232442 -0.228548 -0.246547 -0.24038 -0.251309 -0.246547 -0.262152 -0.255718 -0.246547 -0.24038 -0.255718 -0.24797 -0.0999948 -0.0886243 -0.0935395 -0.0800101 -0.0886243 -0.0772761 -0.0800101 -0.066974 -0.0935395 -0.0800101 -0.0840285 -0.0696862 -0.0800101 -0.066974 -0.0696862 -0.0560561 -0.121415 -0.111071 -0.12114 -0.107363 -0.111071 -0.0999948 -0.107363 -0.0935395 -0.12114 -0.107363 -0.114717 -0.099096 -0.107363 -0.0935395 -0.099096 -0.0840285 -0.0898779 -0.0882278 -0.111479 -0.10562 -0.0882278 -0.0853968 -0.10562 -0.0985819 -0.111479 -0.10562 -0.121415 -0.111071 -0.10562 -0.0985819 -0.111071 -0.0999948 -0.0853968 -0.081664 -0.0985819 -0.0907686 -0.081664 -0.0772991 -0.0907686 -0.0825191 -0.0985819 -0.0907686 -0.0999948 -0.0886243 -0.0907686 -0.0825191 -0.0886243 -0.0772761 0.039495 0.113633 0.00494747 0.0585837 0.113633 0.168653 0.0585837 0.105366 0.00494747 0.0585837 -0.0152651 0.022258 0.0585837 0.105366 0.022258 0.0623074 -0.0152651 0.022258 -0.027073 -0.00209314 0.022258 0.0623074 -0.00209314 0.0322554 -0.027073 -0.00209314 -0.033555 -0.0184944 -0.00209314 0.0322554 -0.0184944 0.0106798 0 -0.0175422 0 -0.0183192 -0.0175422 -0.0152651 -0.0183192 -0.027073 0 -0.0183192 0 -0.0179875 -0.0183192 -0.027073 -0.0179875 -0.033555 0 -0.00974286 0 -0.0151495 -0.00974286 0.039495 -0.0151495 0.00494747 0 -0.0151495 0 -0.0175422 -0.0151495 0.00494747 -0.0175422 -0.0152651 -0.00273941 -0.00154709 -0.00614365 -0.00372668 -0.00154709 -0.000617748 -0.00372668 -0.00174966 -0.00614365 -0.00372668 -0.0108039 -0.00691988 -0.00372668 -0.00174966 -0.00691988 -0.00362421 -0.00559593 -0.00411424 -0.0117361 -0.00886108 -0.00411424 -0.00273941 -0.00886108 -0.00614365 -0.0117361 -0.00886108 -0.0195082 -0.0150711 -0.00886108 -0.00614365 -0.0150711 -0.0108039 0 0 -0.00145088 -0.00103522 0 0 -0.00103522 -0.000656332 -0.00145088 -0.00103522 -0.00559593 -0.00411424 -0.00103522 -0.000656332 -0.00411424 -0.00273941 0 0 -0.000656332 -0.000335611 0 0 -0.000335611 -9.68971e-05 -0.000656332 -0.000335611 -0.00273941 -0.00154709 -0.000335611 -9.68971e-05 -0.00154709 -0.000617748 -0.00749244 0.00365211 -0.000520337 0.0120537 0.00365211 0.0119683 0.0120537 0.0217836 -0.000520337 0.0120537 0.0108942 0.0239978 0.0120537 0.0217836 0.0239978 0.0343496 0.0108942 0.0239978 0.0259025 0.0388098 0.0239978 0.0343496 0.0388098 0.0490478 0.0259025 0.0388098 0.0435653 0.0556986 0.0388098 0.0490478 0.0556986 0.0652084 -0.0185946 -0.00460855 -0.00199142 0.0108828 -0.00460855 0.0108942 0.0108828 0.0259025 -0.00199142 0.0108828 0.0178953 0.0294797 0.0108828 0.0259025 0.0294797 0.0435653 -0.0368434 -0.021816 -0.0306887 -0.0158719 -0.021816 -0.00749244 -0.0158719 -0.000520337 -0.0306887 -0.0158719 -0.0185946 -0.00460855 -0.0158719 -0.000520337 -0.00460855 0.0108942 0.48143 0.682667 0.502677 0.702513 0.682667 1 0.702513 1 0.502677 0.702513 0.517163 0.716145 0.702513 1 0.716145 1 0.236555 0.337328 0.257754 0.358467 0.337328 0.48143 0.358467 0.502677 0.257754 0.358467 0.273947 0.373483 0.358467 0.502677 0.373483 0.517163 0.168653 0.26302 0.207974 0.30705 0.26302 0.403416 0.30705 0.450085 0.207974 0.30705 0.236555 0.337328 0.30705 0.450085 0.337328 0.48143 0.403416 0.611438 0.450085 0.653729 0.611438 1 0.653729 1 0.450085 0.653729 0.48143 0.682667 0.653729 1 0.682667 1 -0.0122841 -0.0243232 -0.0116988 -0.0232973 -0.0243232 -0.0381442 -0.0232973 -0.0366354 -0.0116988 -0.0232973 -0.0107674 -0.0216495 -0.0232973 -0.0366354 -0.0216495 -0.0342353 -0.0107674 -0.0216495 -0.00952615 -0.0194387 -0.0216495 -0.0342353 -0.0194387 -0.0310275 -0.00952615 -0.0194387 -0.00802311 -0.0167421 -0.0194387 -0.0310275 -0.0167421 -0.0271179 0 -0.00288321 0 -0.00250019 -0.00288321 -0.0107674 -0.00250019 -0.00952615 0 -0.00250019 0 -0.0020427 -0.00250019 -0.00952615 -0.0020427 -0.00802311 0 -0.0033625 0 -0.00317493 -0.0033625 -0.0122841 -0.00317493 -0.0116988 0 -0.00317493 0 -0.00288321 -0.00317493 -0.0116988 -0.00288321 -0.0107674 -0.219829 -0.2243 -0.198876 -0.202684 -0.2243 -0.228381 -0.202684 -0.207649 -0.198876 -0.202684 -0.177922 -0.181966 -0.202684 -0.207649 -0.181966 -0.186011 -0.228381 -0.231484 -0.207649 -0.21256 -0.231484 -0.232336 -0.21256 -0.216432 -0.207649 -0.21256 -0.186011 -0.191821 -0.21256 -0.216432 -0.191821 -0.197416 -0.186011 -0.191821 -0.166312 -0.170888 -0.191821 -0.197416 -0.170888 -0.177091 -0.166312 -0.170888 -0.146613 -0.151556 -0.170888 -0.177091 -0.151556 -0.156499 -0.262565 -0.240763 -0.248601 -0.224266 -0.240763 -0.212497 -0.224266 -0.19474 -0.248601 -0.224266 -0.231144 -0.204776 -0.224266 -0.19474 -0.204776 -0.174676 -0.231144 -0.204776 -0.210201 -0.182609 -0.204776 -0.1