# vtk DataFile Version 3.0
#This file was generated by the deal.II library on 2020/12/25 at 16:48:40
ASCII
DATASET UNSTRUCTURED_GRID

POINTS 2304 double
0.125 0.124999 0
0.125 0.0833324 0
0.166666 0.124998 0
0.166667 0.0833322 0
0.125 0.166665 0
0.125 0.124999 0
0.166666 0.166664 0
0.166666 0.124998 0
0.0833332 0.166666 0
0.0833332 0.124999 0
0.125 0.166665 0
0.125 0.124999 0
0.0833332 0.124999 0
0.0833333 0.0833327 0
0.125 0.124999 0
0.125 0.0833324 0
0.458332 0.541659 0
0.499999 0.541659 0
0.458332 0.583326 0
0.499999 0.583326 0
0.416666 0.541659 0
0.458332 0.541659 0
0.416666 0.583326 0
0.458332 0.583326 0
0.416666 0.499992 0
0.458332 0.499992 0
0.416666 0.541659 0
0.458332 0.541659 0
0.458332 0.499992 0
0.499999 0.499992 0
0.458332 0.541659 0
0.499999 0.541659 0
0.541666 0.624993 0
0.583332 0.624993 0
0.541666 0.66666 0
0.583332 0.66666 0
0.499999 0.624993 0
0.541666 0.624993 0
0.499999 0.66666 0
0.541666 0.66666 0
0.499999 0.583326 0
0.541666 0.583326 0
0.499999 0.624993 0
0.541666 0.624993 0
0.541666 0.583326 0
0.583332 0.583326 0
0.541666 0.624993 0
0.583332 0.624993 0
0.499999 0.541659 0
0.541666 0.541659 0
0.499999 0.583326 0
0.541666 0.583326 0
0.499999 0.499992 0
0.541666 0.499992 0
0.499999 0.541659 0
0.541666 0.541659 0
0.541666 0.499992 0
0.583332 0.499992 0
0.541666 0.541659 0
0.583332 0.541659 0
0.541666 0.541659 0
0.583332 0.541659 0
0.541666 0.583326 0
0.583332 0.583326 0
0.499999 0.458326 0
0.499999 0.416659 0
0.541666 0.458326 0
0.541666 0.416659 0
0.541666 0.458326 0
0.541666 0.416659 0
0.583332 0.458326 0
0.583332 0.416659 0
0.541666 0.499992 0
0.541666 0.458326 0
0.583332 0.499992 0
0.583332 0.458326 0
0.499999 0.499992 0
0.499999 0.458326 0
0.541666 0.499992 0
0.541666 0.458326 0
0.208333 0.20833 0
0.166666 0.208331 0
0.208333 0.166664 0
0.166666 0.166664 0
0.25 0.20833 0
0.208333 0.20833 0
0.25 0.166664 0
0.208333 0.166664 0
0.249999 0.249996 0
0.208333 0.249996 0
0.25 0.20833 0
0.208333 0.20833 0
0.208333 0.249996 0
0.166666 0.249997 0
0.208333 0.20833 0
0.166666 0.208331 0
0.291666 0.874997 0
0.25 0.874998 0
0.291666 0.83333 0
0.25 0.83333 0
0.333333 0.874997 0
0.291666 0.874997 0
0.333333 0.83333 0
0.291666 0.83333 0
0.333333 0.916665 0
0.291666 0.916665 0
0.333333 0.874997 0
0.291666 0.874997 0
0.291666 0.916665 0
0.25 0.916665 0
0.291666 0.874997 0
0.25 0.874998 0
0.499999 0.374993 0
0.541666 0.374993 0
0.499999 0.416659 0
0.541666 0.416659 0
0.499999 0.333326 0
0.541666 0.333326 0
0.499999 0.374993 0
0.541666 0.374993 0
0.541666 0.333326 0
0.583332 0.333327 0
0.541666 0.374993 0
0.583332 0.374993 0
0.541666 0.374993 0
0.583332 0.374993 0
0.541666 0.416659 0
0.583332 0.416659 0
0.458332 0.499992 0
0.458332 0.458326 0
0.499999 0.499992 0
0.499999 0.458326 0
0.416666 0.499992 0
0.416666 0.458326 0
0.458332 0.499992 0
0.458332 0.458326 0
0.416666 0.458326 0
0.416666 0.416659 0
0.458332 0.458326 0
0.458332 0.416659 0
0.458332 0.458326 0
0.458332 0.416659 0
0.499999 0.458326 0
0.499999 0.416659 0
0.708333 0.166663 0
0.708333 0.124997 0
0.75 0.166664 0
0.75 0.124998 0
0.666666 0.166663 0
0.666666 0.124997 0
0.708333 0.166663 0
0.708333 0.124997 0
0.666666 0.124997 0
0.666666 0.0833314 0
0.708333 0.124997 0
0.708333 0.0833316 0
0.708333 0.124997 0
0.708333 0.0833316 0
0.75 0.124998 0
0.75 0.0833317 0
0.499999 0.29166 0
0.499999 0.249994 0
0.541666 0.29166 0
0.541666 0.249994 0
0.541666 0.29166 0
0.541666 0.249994 0
0.583333 0.29166 0
0.583333 0.249994 0
0.541666 0.333326 0
0.541666 0.29166 0
0.583332 0.333327 0
0.583333 0.29166 0
0.499999 0.333326 0
0.499999 0.29166 0
0.541666 0.333326 0
0.541666 0.29166 0
0.125 0.208331 0
0.125 0.166665 0
0.166666 0.208331 0
0.166666 0.166664 0
0.125 0.249998 0
0.125 0.208331 0
0.166666 0.249997 0
0.166666 0.208331 0
0.0833331 0.249998 0
0.0833331 0.208332 0
0.125 0.249998 0
0.125 0.208331 0
0.0833331 0.208332 0
0.0833332 0.166666 0
0.125 0.208331 0
0.125 0.166665 0
0.875 0.791665 0
0.875 0.833332 0
0.833333 0.791664 0
0.833333 0.833331 0
0.875 0.749998 0
0.875 0.791665 0
0.833333 0.749997 0
0.833333 0.791664 0
0.916666 0.749998 0
0.916666 0.791665 0
0.875 0.749998 0
0.875 0.791665 0
0.916666 0.791665 0
0.916667 0.833332 0
0.875 0.791665 0
0.875 0.833332 0
0.249999 0.458327 0
0.208333 0.458328 0
0.249999 0.416661 0
0.208333 0.416662 0
0.249999 0.499994 0
0.208333 0.499995 0
0.249999 0.458327 0
0.208333 0.458328 0
0.208333 0.499995 0
0.166666 0.499996 0
0.208333 0.458328 0
0.166666 0.458329 0
0.208333 0.458328 0
0.166666 0.458329 0
0.208333 0.416662 0
0.166666 0.416662 0
0.708333 0.458327 0
0.708333 0.41666 0
0.749999 0.458328 0
0.749999 0.416661 0
0.708332 0.499994 0
0.708333 0.458327 0
0.749999 0.499994 0
0.749999 0.458328 0
0.666666 0.499993 0
0.666666 0.458327 0
0.708332 0.499994 0
0.708333 0.458327 0
0.666666 0.458327 0
0.666666 0.41666 0
0.708333 0.458327 0
0.708333 0.41666 0
0.416666 0.583326 0
0.458332 0.583326 0
0.416666 0.624993 0
0.458332 0.624993 0
0.458332 0.583326 0
0.499999 0.583326 0
0.458332 0.624993 0
0.499999 0.624993 0
0.458332 0.624993 0
0.499999 0.624993 0
0.458332 0.66666 0
0.499999 0.66666 0
0.416666 0.624993 0
0.458332 0.624993 0
0.416666 0.66666 0
0.458332 0.66666 0
0.458333 0.708327 0
0.499999 0.708327 0
0.458333 0.749994 0
0.499999 0.749994 0
0.416666 0.708327 0
0.458333 0.708327 0
0.416666 0.749994 0
0.458333 0.749994 0
0.416666 0.66666 0
0.458332 0.66666 0
0.416666 0.708327 0
0.458333 0.708327 0
0.458332 0.66666 0
0.499999 0.66666 0
0.458333 0.708327 0
0.499999 0.708327 0
0.416667 0.958332 0
0.458333 0.958332 0
0.416667 1 0
0.458333 1 0
0.416666 0.916665 0
0.458333 0.916665 0
0.416667 0.958332 0
0.458333 0.958332 0
0.458333 0.916665 0
0.5 0.916665 0
0.458333 0.958332 0
0.5 0.958332 0
0.458333 0.958332 0
0.5 0.958332 0
0.458333 1 0
0.5 1 0
0.25 0.916665 0
0.208333 0.916665 0
0.25 0.874998 0
0.208333 0.874998 0
0.208333 0.916665 0
0.166667 0.916666 0
0.208333 0.874998 0
0.166666 0.874998 0
0.208333 0.874998 0
0.166666 0.874998 0
0.208333 0.833331 0
0.166666 0.833331 0
0.25 0.874998 0
0.208333 0.874998 0
0.25 0.83333 0
0.208333 0.833331 0
0.0416666 0.916666 0
0.0416666 0.875 0
0.0833333 0.916666 0
0.0833332 0.874999 0
0 0.916667 0
0 0.875 0
0.0416666 0.916666 0
0.0416666 0.875 0
0 0.875 0
0 0.833333 0
0.0416666 0.875 0
0.0416666 0.833333 0
0.0416666 0.875 0
0.0416666 0.833333 0
0.0833332 0.874999 0
0.0833332 0.833332 0
0.458332 0.333326 0
0.499999 0.333326 0
0.458332 0.374993 0
0.499999 0.374993 0
0.458332 0.374993 0
0.499999 0.374993 0
0.458332 0.416659 0
0.499999 0.416659 0
0.416666 0.374993 0
0.458332 0.374993 0
0.416666 0.416659 0
0.458332 0.416659 0
0.416666 0.333327 0
0.458332 0.333326 0
0.416666 0.374993 0
0.458332 0.374993 0
0.125 0.45833 0
0.125 0.416663 0
0.166666 0.458329 0
0.166666 0.416662 0
0.125 0.499997 0
0.125 0.45833 0
0.166666 0.499996 0
0.166666 0.458329 0
0.083333 0.499998 0
0.083333 0.458331 0
0.125 0.499997 0
0.125 0.45833 0
0.083333 0.458331 0
0.083333 0.416664 0
0.125 0.45833 0
0.125 0.416663 0
0.375 0.874997 0
0.333333 0.874997 0
0.374999 0.83333 0
0.333333 0.83333 0
0.416666 0.874997 0
0.375 0.874997 0
0.416666 0.833329 0
0.374999 0.83333 0
0.416666 0.916665 0
0.375 0.916665 0
0.416666 0.874997 0
0.375 0.874997 0
0.375 0.916665 0
0.333333 0.916665 0
0.375 0.874997 0
0.333333 0.874997 0
0.374999 0.374993 0
0.374999 0.416659 0
0.333332 0.374993 0
0.333332 0.41666 0
0.374999 0.333327 0
0.374999 0.374993 0
0.333333 0.333327 0
0.333332 0.374993 0
0.416666 0.333327 0
0.416666 0.374993 0
0.374999 0.333327 0
0.374999 0.374993 0
0.416666 0.374993 0
0.416666 0.416659 0
0.374999 0.374993 0
0.374999 0.416659 0
0.791666 0.333329 0
0.749999 0.333328 0
0.791666 0.291663 0
0.749999 0.291662 0
0.791666 0.291663 0
0.749999 0.291662 0
0.791666 0.249996 0
0.749999 0.249996 0
0.833333 0.291663 0
0.791666 0.291663 0
0.833333 0.249997 0
0.791666 0.249996 0
0.833333 0.33333 0
0.791666 0.333329 0
0.833333 0.291663 0
0.791666 0.291663 0
0.833333 0.749997 0
0.833333 0.791664 0
0.791666 0.749997 0
0.791666 0.791664 0
0.833333 0.791664 0
0.833333 0.833331 0
0.791666 0.791664 0
0.791666 0.833331 0
0.791666 0.791664 0
0.791666 0.833331 0
0.75 0.791663 0
0.75 0.83333 0
0.791666 0.749997 0
0.791666 0.791664 0
0.749999 0.749996 0
0.75 0.791663 0
0.291666 0.624994 0
0.291666 0.666661 0
0.249999 0.624995 0
0.249999 0.666662 0
0.291666 0.583327 0
0.291666 0.624994 0
0.249999 0.583328 0
0.249999 0.624995 0
0.333332 0.583326 0
0.333332 0.624994 0
0.291666 0.583327 0
0.291666 0.624994 0
0.333332 0.624994 0
0.333333 0.666661 0
0.291666 0.624994 0
0.291666 0.666661 0
0.416666 0.333327 0
0.374999 0.333327 0
0.416666 0.29166 0
0.374999 0.291661 0
0.374999 0.333327 0
0.333333 0.333327 0
0.374999 0.291661 0
0.333333 0.291661 0
0.374999 0.291661 0
0.333333 0.291661 0
0.374999 0.249995 0
0.333333 0.249995 0
0.416666 0.29166 0
0.374999 0.291661 0
0.416666 0.249994 0
0.374999 0.249995 0
0.624999 0.66666 0
0.624999 0.708328 0
0.583332 0.66666 0
0.583333 0.708327 0
0.666666 0.666661 0
0.666666 0.708328 0
0.624999 0.66666 0
0.624999 0.708328 0
0.666666 0.708328 0
0.666666 0.749995 0
0.624999 0.708328 0
0.624999 0.749995 0
0.624999 0.708328 0
0.624999 0.749995 0
0.583333 0.708327 0
0.583333 0.749995 0
0.875 0.541664 0
0.875 0.58333 0
0.833333 0.541663 0
0.833333 0.583329 0
0.875 0.499997 0
0.875 0.541664 0
0.833333 0.499996 0
0.833333 0.541663 0
0.916666 0.499998 0
0.916666 0.541665 0
0.875 0.499997 0
0.875 0.541664 0
0.916666 0.541665 0
0.916666 0.583331 0
0.875 0.541664 0
0.875 0.58333 0
0.958333 0.916666 0
0.916667 0.916666 0
0.958333 0.875 0
0.916667 0.874999 0
0.958333 0.875 0
0.916667 0.874999 0
0.958333 0.833333 0
0.916667 0.833332 0
1 0.875 0
0.958333 0.875 0
1 0.833333 0
0.958333 0.833333 0
1 0.916667 0
0.958333 0.916666 0
1 0.875 0
0.958333 0.875 0
0.0416666 0.125 0
0.0416666 0.083333 0
0.0833332 0.124999 0
0.0833333 0.0833327 0
0.0416666 0.166666 0
0.0416666 0.125 0
0.0833332 0.166666 0
0.0833332 0.124999 0
0 0.166667 0
0 0.125 0
0.0416666 0.166666 0
0.0416666 0.125 0
0 0.125 0
0 0.0833333 0
0.0416666 0.125 0
0.0416666 0.083333 0
[...]
POINT_DATA 2304
SCALARS solution_0 double 1
LOOKUP_TABLE default
-0.0167272 -0.00821816 -0.0284931 -0.0152786 -0.0260228 -0.0167272 -0.0422866 -0.0284931 -0.0129381 -0.00783953 -0.0260228 -0.0167272 -0.00783953 -0.00352108 -0.0167272 -0.00821816 -0.0160749 -0.019008 0.0144974 0.0113576 -0.0137984 -0.0160749 0.0167489 0.0144974 -0.0443263 -0.0462909 -0.0137984 -0.0160749 -0.0462909 -0.0487265 -0.0160749 -0.019008 0.0386982 0.0334162 0.071302 0.0656065 0.0428192 0.0386982 0.0753254 0.071302 0.0113576 0.00741307 0.0428192 0.0386982 0.00741307 0.00267415 0.0386982 0.0334162 -0.019008 -0.0225546 0.0113576 0.00741307 -0.0487265 -0.0516806 -0.019008 -0.0225546 -0.0516806 -0.0550992 -0.0225546 -0.0266567 -0.0225546 -0.0266567 0.00741307 0.00267415 -0.0787572 -0.110351 -0.0810581 -0.112301 -0.0810581 -0.112301 -0.0839272 -0.115074 -0.0516806 -0.0810581 -0.0550992 -0.0839272 -0.0487265 -0.0787572 -0.0516806 -0.0810581 -0.0769868 -0.0545418 -0.0613653 -0.0422866 -0.100914 -0.0769868 -0.0824513 -0.0613653 -0.112758 -0.0877148 -0.100914 -0.0769868 -0.0877148 -0.0634504 -0.0769868 -0.0545418 0.11512 0.0849689 0.118106 0.0924794 0.142856 0.11512 0.141333 0.118106 0.155698 0.123321 0.142856 0.11512 0.123321 0.0893237 0.11512 0.0849689 -0.143954 -0.14629 -0.110351 -0.112301 -0.177182 -0.180635 -0.143954 -0.14629 -0.180635 -0.184331 -0.14629 -0.149532 -0.14629 -0.149532 -0.112301 -0.115074 -0.0462909 -0.0769322 -0.0487265 -0.0787572 -0.0443263 -0.0753272 -0.0462909 -0.0769322 -0.0753272 -0.107095 -0.0769322 -0.108817 -0.0769322 -0.108817 -0.0787572 -0.110351 -0.114261 -0.0745941 -0.0853198 -0.0519441 -0.139519 -0.0963424 -0.114261 -0.0745941 -0.0963424 -0.0580541 -0.0745941 -0.0416227 -0.0745941 -0.0416227 -0.0519441 -0.0258656 -0.203566 -0.214574 -0.208124 -0.219135 -0.208124 -0.219135 -0.211208 -0.219928 -0.180635 -0.208124 -0.184331 -0.211208 -0.177182 -0.203566 -0.180635 -0.208124 -0.0346305 -0.0260228 -0.0545418 -0.0422866 -0.0411787 -0.0346305 -0.0634504 -0.0545418 -0.0217382 -0.0178562 -0.0411787 -0.0346305 -0.0178562 -0.0129381 -0.0346305 -0.0260228 0.0162685 0.0512242 0.0506458 0.0845308 -0.00662356 0.0162685 0.0265828 0.0506458 -0.0361333 -0.0244061 -0.00662356 0.0162685 -0.0244061 -0.000298358 0.0162685 0.0512242 -0.0577679 -0.0479285 -0.0800999 -0.0660299 -0.0334871 -0.027691 -0.0577679 -0.0479285 -0.027691 -0.020469 -0.0479285 -0.0362708 -0.0479285 -0.0362708 -0.0660299 -0.0500663 -0.100062 -0.133764 -0.111077 -0.143337 -0.0698112 -0.100062 -0.079698 -0.111077 -0.0635401 -0.0925189 -0.0698112 -0.100062 -0.0925189 -0.125207 -0.100062 -0.133764 0.0167489 0.0144974 0.0475343 0.0458035 0.0144974 0.0113576 0.0458035 0.0428192 0.0458035 0.0428192 0.0777035 0.0753254 0.0475343 0.0458035 0.0782831 0.0777035 0.109445 0.108252 0.139627 0.140289 0.108129 0.109445 0.135665 0.139627 0.0782831 0.0777035 0.108129 0.109445 0.0777035 0.0753254 0.109445 0.108252 0.428665 0.454305 1 1 0.211663 0.234193 0.428665 0.454305 0.234193 0.25283 0.454305 0.47658 0.454305 0.47658 1 1 0.0893237 0.0552295 0.0849689 0.054212 0.0552295 0.0234118 0.054212 0.0254347 0.054212 0.0254347 0.065943 0.0405587 0.0849689 0.054212 0.0924794 0.065943 -0.0209569 -0.0057085 -0.0182455 -0.0101867 0 0 -0.0209569 -0.0057085 0 0 -0.0057085 -0.000171741 -0.0057085 -0.000171741 -0.0101867 0.00510126 -0.173196 -0.177182 -0.141789 -0.143954 -0.141789 -0.143954 -0.108817 -0.110351 -0.138826 -0.141789 -0.107095 -0.108817 -0.167568 -0.173196 -0.138826 -0.141789 -0.0236681 -0.0333657 -0.0362708 -0.0500663 -0.012391 -0.0236681 -0.020469 -0.0362708 -0.00495559 -0.0116222 -0.012391 -0.0236681 -0.0116222 -0.0173984 -0.0236681 -0.0333657 0.166962 0.142856 0.161059 0.141333 0.186671 0.166962 0.176565 0.161059 0.211663 0.185373 0.186671 0.166962 0.185373 0.155698 0.166962 0.142856 -0.133879 -0.104279 -0.125846 -0.0993064 -0.159128 -0.133879 -0.146986 -0.125846 -0.167568 -0.138826 -0.159128 -0.133879 -0.138826 -0.107095 -0.133879 -0.104279 -0.16346 -0.184878 -0.147598 -0.180481 -0.147598 -0.180481 -0.119599 -0.157631 -0.104108 -0.147598 -0.0777593 -0.119599 -0.125887 -0.16346 -0.104108 -0.147598 0.0265828 0.0506458 0.0525233 0.0782548 0.0506458 0.0845308 0.0782548 0.11166 0.0782548 0.11166 0.103015 0.135294 0.0525233 0.0782548 0.0751713 0.103015 0.0429596 0.0666257 0.0382251 0.0584172 0.0171517 0.0429596 0.0155391 0.0382251 0.0180749 0.0462501 0.0171517 0.0429596 0.0462501 0.0728862 0.0429596 0.0666257 -0.167568 -0.159128 -0.188074 -0.175544 -0.159128 -0.146986 -0.175544 -0.159161 -0.175544 -0.159161 -0.17891 -0.159547 -0.188074 -0.175544 -0.194608 -0.17891 0.0581026 0.0904796 0.0656065 0.0988417 0.0486406 0.0794324 0.0581026 0.0904796 0.0794324 0.110797 0.0904796 0.123216 0.0904796 0.123216 0.0988417 0.132145 -0.0875222 -0.0728598 -0.0821785 -0.0584658 -0.0990737 -0.0875222 -0.105425 -0.0821785 -0.0652738 -0.0647393 -0.0990737 -0.0875222 -0.0647393 -0.0612583 -0.0875222 -0.0728598 0.0650584 0.17665 -0.0120203 0.0541572 -0.0120203 0.0541572 -0.0294395 -0.000298358 0 -0.0120203 0 -0.0294395 0 0.0650584 0 -0.0120203 -0.00200635 -0.000751267 -0.00783953 -0.00352108 -0.00356088 -0.00200635 -0.0129381 -0.00783953 0 0 -0.00356088 -0.00200635 0 0 -0.00200635 -0.000751267 -0.0101867 0.00510126 0.0026484 0.0189896 0.0026484 0.0189896 0.0254347 0.0405587 -0.00319694 0.0026484 0.0234118 0.0254347 -0.0182455 -0.0101867 -0.00319694 0.0026484 -0.0490575 0 -0.044201 0 -0.0923754 -0.0490575 -0.0848892 -0.044201 -0.094943 -0.0504874 -0.0923754 -0.0490575 -0.0504874 0 -0.0490575 0 0.491107 1 0.522251 1 0.240549 0.491107 0.269436 0.522251 0.17665 0.426796 0.240549 0.491107 0.426796 1 0.491107 1 -0.00705068 -0.0238826 -0.00623881 -0.021645 -0.00623881 -0.021645 -0.00474544 -0.0173984 0 -0.00623881 0 -0.00474544 0 -0.00705068 0 -0.00623881 -0.160516 -0.167274 -0.125207 -0.133764 -0.192088 -0.192539 -0.160516 -0.167274 -0.192539 -0.184878 -0.167274 -0.170587 -0.167274 -0.170587 -0.133764 -0.143337 -0.179607 -0.139519 -0.154843 -0.114261 -0.154843 -0.114261 -0.122855 -0.0853198 -0.186699 -0.154843 -0.157631 -0.122855 -0.205684 -0.179607 -0.186699 -0.154843 -0.146986 -0.125846 -0.130888 -0.11407 -0.125846 -0.0993064 -0.11407 -0.0913371 -0.11407 -0.0913371 -0.0986507 -0.0800999 -0.130888 -0.11407 -0.111346 -0.0986507 -0.0612583 -0.0560298 -0.0728598 -0.0569975 -0.0560298 -0.0500235 -0.0569975 -0.040928 -0.0569975 -0.040928 -0.035841 -0.0146134 -0.0728598 -0.0569975 -0.0584658 -0.035841 -0.139519 -0.158849 -0.0963424 -0.114707 -0.158849 -0.171377 -0.114707 -0.128089 -0.114707 -0.128089 -0.0730582 -0.0848892 -0.0963424 -0.114707 -0.0580541 -0.0730582 0 0 -0.000751267 -0.000652578 0 0 -0.000652578 0 -0.000652578 0 -0.00065675 0 -0.000751267 -0.000652578 -0.00352108 -0.00065675 -0.0236226 -0.0236581 -0.0560298 -0.0500235 -0.0232658 -0.0236226 -0.0612583 -0.0560298 0 0 -0.0232658 -0.0236226 0 0 -0.0236226 -0.0236581 -0.0313245 -0.0519441 -0.0128069 -0.0258656 -0.0153135 -0.0313245 -0.0038317 -0.0128069 -0.0315126 -0.0563588 -0.0153135 -0.0313245 -0.0563588 -0.0853198 -0.0313245 -0.0519441 -0.0778008 -0.125887 -0.0587237 -0.104108 -0.0587237 -0.104108 -0.0405144 -0.0777593 -0.0233444 -0.0587237 -0.0149757 -0.0405144 -0.0336267 -0.0778008 -0.0233444 -0.0587237 0.283239 0.289749 0.166871 0.183942 0.166871 0.183942 0.11166 0.135294 0.144885 0.166871 0.0845308 0.11166 0.269436 0.283239 0.144885 0.166871 -0.116361 -0.0920628 -0.112758 -0.0877148 -0.111346 -0.0894817 -0.116361 -0.0920628 -0.0894817 -0.0667174 -0.0920628 -0.0677116 -0.0920628 -0.0677116 -0.0877148 -0.0634504 0.0294921 0.0525233 0.0488864 0.0751713 0.00723969 0.0294921 0.023551 0.0488864 -0.0146134 0.00574566 0.00723969 0.0294921 0.00574566 0.0265828 0.0294921 0.0525233 -0.000277029 0.00174259 0 0 0 -0.000277029 0 0 0 0.000722491 0 -0.000277029 0.000722491 0.00154224 -0.000277029 0.00174259 0 -0.0209569 0 0.103688 -0.0209569 -0.0182455 0.103688 0.144784 0.103688 0.144784 1 1 0 0.103688 1 1 -0.0436291 -0.0361333 -0.0245821 -0.00662356 -0.0245821 -0.00662356 0.00574566 0.0265828 -0.040928 -0.0245821 -0.0146134 0.00574566 -0.0500235 -0.0436291 -0.040928 -0.0245821 -0.119599 -0.157631 -0.0869073 -0.122855 -0.0869073 -0.122855 -0.0563588 -0.0853198 -0.0525319 -0.0869073 -0.0315126 -0.0563588 -0.0777593 -0.119599 -0.0525319 -0.0869073 -0.163168 -0.147896 -0.170587 -0.143337 -0.16346 -0.163168 -0.184878 -0.170587 -0.125887 -0.137687 -0.16346 -0.163168 -0.137687 -0.137036 -0.163168 -0.147896 -0.0238825 -0.0217382 -0.0446362 -0.0411787 -0.0446362 -0.0411787 -0.0677116 -0.0634504 -0.044438 -0.0446362 -0.0667174 -0.0677116 -0.0238826 -0.0238825 -0.044438 -0.0446362 -0.0804052 -0.0660299 -0.0605895 -0.0500663 -0.0894817 -0.0804052 -0.0667174 -0.0605895 -0.111346 -0.0986507 -0.0894817 -0.0804052 -0.0986507 -0.0800999 -0.0804052 -0.0660299 0.132544 0.141333 0.114029 0.118106 0.114029 0.118106 0.0931566 0.0924794 0.103345 0.114029 0.0870388 0.0931566 0.117339 0.132544 0.103345 0.114029 -0.021645 -0.0405413 -0.0173984 -0.0333657 -0.0238826 -0.044438 -0.021645 -0.0405413 -0.044438 -0.0667174 -0.0405413 -0.0605895 -0.0405413 -0.0605895 -0.0333657 -0.0500663 0.0584172 0.0750705 0.0490401 0.0616708 0.0750705 0.0870388 0.0616708 0.069409 0.0616708 0.069409 0.0475891 0.0512982 0.0490401 0.0616708 0.0391172 0.0475891 -0.0925189 -0.0875469 -0.125207 -0.119142 -0.0635401 -0.0589649 -0.0925189 -0.0875469 -0.0589649 -0.0550992 -0.0875469 -0.0839272 -0.0875469 -0.0839272 -0.119142 -0.115074 -0.00708879 -0.00639459 -0.0238825 -0.0217382 -0.00705068 -0.00708879 -0.0238826 -0.0238825 0 0 -0.00705068 -0.00708879 0 0 -0.00708879 -0.00639459 0.0711184 0.065943 0.0492148 0.0405587 0.069409 0.0711184 0.0512982 0.0492148 0.0870388 0.0931566 0.069409 0.0711184 0.0931566 0.0924794 0.0711184 0.065943 -0.0236581 -0.0240028 -0.0500235 -0.0436291 0 0 -0.0236581 -0.0240028 0 0 -0.0240028 -0.0255313 -0.0240028 -0.0255313 -0.0436291 -0.0361333 0.296026 1 0.426796 1 0.0650584 0.296026 0.17665 0.426796 0 0 0.0650584 0.296026 0 1 0.296026 1 -0.0255313 -0.0285935 -0.0361333 -0.0244061 0 0 -0.0255313 -0.0285935 0 0 -0.0285935 -0.0294395 -0.0285935 -0.0294395 -0.0244061 -0.000298358 0.0541572 0.113981 -0.000298358 0.0512242 0.17665 0.240549 0.0541572 0.113981 0.240549 0.269436 0.113981 0.144885 0.113981 0.144885 0.0512242 0.0845308 -0.0377151 -0.0334871 -0.0652475 -0.0577679 -0.0652475 -0.0577679 -0.0913371 -0.0800999 -0.0702942 -0.0652475 -0.0993064 -0.0913371 -0.0405802 -0.0377151 -0.0702942 -0.0652475 -0.00639459 -0.00512961 -0.0217382 -0.0178562 0 0 -0.00639459 -0.00512961 0 0 -0.00512961 -0.00356088 -0.00512961 -0.00356088 -0.0178562 -0.0129381 -0.130888 -0.111346 -0.139152 -0.116361 -0.139152 -0.116361 -0.137149 -0.112758 -0.159161 -0.139152 -0.159547 -0.137149 -0.146986 -0.130888 -0.159161 -0.139152 -0.196255 -0.205352 -0.158849 -0.171377 -0.179607 -0.196255 -0.139519 -0.158849 -0.205684 -0.21603 -0.179607 -0.196255 -0.21603 -0.219928 -0.196255 -0.205352 0.0371373 0.023551 0.0655583 0.0488864 0.0655583 0.0488864 0.0947467 0.0751713 0.0794324 0.0655583 0.110797 0.0947467 0.0486406 0.0371373 0.0794324 0.0655583 0.155698 0.368648 0.123321 0.335372 0.368648 1 0.335372 1 0.335372 1 0.300752 1 0.123321 0.335372 0.0893237 0.300752 0.0552295 0.265287 0.0234118 0.228662 0.0893237 0.300752 0.0552295 0.265287 0.300752 1 0.265287 1 0.265287 1 0.228662 1 0.0133401 0.0208658 0.0167395 0.0285037 0.00820819 0.0108706 0.0133401 0.0208658 0.0108706 0.0122777 0.0208658 0.0269778 0.0208658 0.0269778 0.0285037 0.0391172 0 0 -0.0201119 -0.0221698 0 0 -0.0221698 -0.0232658 -0.0221698 -0.0232658 -0.0647393 -0.0612583 -0.0201119 -0.0221698 -0.0652738 -0.0647393 0.159103 0.176565 0.147761 0.161059 0.147761 0.161059 0.132544 0.141333 0.128234 0.147761 0.117339 0.132544 0.135665 0.159103 0.128234 0.147761 -0.219135 -0.207935 -0.219928 -0.205352 -0.214574 -0.204911 -0.219135 -0.207935 -0.204911 -0.176645 -0.207935 -0.177148 -0.207935 -0.177148 -0.205352 -0.171377 0 0.00462422 0 0.00526905 0 0.00333934 0 0.00462422 0.00333934 0.00820819 0.00462422 0.0133401 0.00462422 0.0133401 0.00526905 0.0167395 -0.093801 -0.079698 -0.122756 -0.111077 -0.122756 -0.111077 -0.147896 -0.143337 -0.125083 -0.122756 -0.137036 -0.147896 -0.105425 -0.093801 -0.125083 -0.122756 0 0 -0.000585201 -0.00277259 0 0 -0.00277259 -0.00474544 -0.00277259 -0.00474544 -0.0116222 -0.0173984 -0.000585201 -0.00277259 -0.00495559 -0.0116222 0.399954 1 0.368648 1 0.185373 0.399954 0.155698 0.368648 0.211663 0.428665 0.185373 0.399954 0.428665 1 0.399954 1 -0.105425 -0.0821785 -0.093801 -0.0653592 -0.0821785 -0.0584658 -0.0653592 -0.0392272 -0.0653592 -0.0392272 -0.05143 -0.0257204 -0.093801 -0.0653592 -0.079698 -0.05143 -0.0580541 -0.0268749 -0.0416227 -0.0169079 -0.0268749 0 -0.0169079 0 -0.0169079 0 -0.00805225 0 -0.0416227 -0.0169079 -0.0258656 -0.00805225 -0.0038317 -0.0128069 0.0021602 -0.00148954 -0.0128069 -0.0258656 -0.00148954 -0.00805225 -0.00148954 -0.00805225 0 0 0.0021602 -0.00148954 0 0 -0.0857678 -0.0753973 -0.0436688 -0.0370242 -0.0753973 -0.0627612 -0.0370242 -0.0294969 -0.0370242 -0.0294969 0 0 -0.0436688 -0.0370242 0 0 -0.0939552 -0.103601 -0.137687 -0.137036 -0.0778008 -0.0939552 -0.125887 -0.137687 -0.0336267 -0.0446716 -0.0778008 -0.0939552 -0.0446716 -0.0547414 -0.0939552 -0.103601 0.135665 0.139627 0.159103 0.166358 0.139627 0.140289 0.166358 0.16953 0.166358 0.16953 0.18747 0.19364 0.159103 0.166358 0.176565 0.18747 0.0190196 0.00978337 0.0486406 0.0371373 -0.00924699 -0.0165762 0.0190196 0.00978337 -0.0165762 -0.0257204 0.00978337 -0.00111402 0.00978337 -0.00111402 0.0371373 0.023551 0.190286 0.228662 1 1 0.144784 0.190286 1 1 -0.0182455 -0.00319694 0.144784 0.190286 -0.00319694 0.0234118 0.190286 0.228662 -0.124917 -0.100914 -0.104244 -0.0824513 -0.147572 -0.124917 -0.125223 -0.104244 -0.159547 -0.137149 -0.147572 -0.124917 -0.137149 -0.112758 -0.124917 -0.100914 -0.0584658 -0.035841 -0.0392272 -0.0153309 -0.035841 -0.0146134 -0.0153309 0.00723969 -0.0153309 0.00723969 -0.00111402 0.023551 -0.0392272 -0.0153309 -0.0257204 -0.00111402 -0.0201119 -0.0652738 -0.017183 -0.0619593 -0.017183 -0.0619593 -0.0136537 -0.0547414 0 -0.017183 0 -0.0136537 0 -0.0201119 0 -0.017183 -0.0268749 -0.0364538 0 0 -0.0580541 -0.0730582 -0.0268749 -0.0364538 -0.0730582 -0.0848892 -0.0364538 -0.044201 -0.0364538 -0.044201 0 0 -0.0425815 -0.0405802 -0.0733864 -0.0702942 -0.0733864 -0.0702942 -0.104279 -0.0993064 -0.0753272 -0.0733864 -0.107095 -0.104279 -0.0443263 -0.0425815 -0.0753272 -0.0733864 -0.0312664 -0.00287489 -0.0266567 0.00267415 -0.0589649 -0.0312664 -0.0550992 -0.0266567 -0.0635401 -0.0364286 -0.0589649 -0.0312664 -0.0364286 -0.00924699 -0.0312664 -0.00287489 0.00299972 0.0021602 0 0 0.00174259 0.00299972 0 0 0.00154224 0.000689994 0.00174259 0.00299972 0.000689994 -0.0038317 0.00299972 0.0021602 -0.137543 -0.094943 -0.135741 -0.0923754 -0.135741 -0.0923754 -0.128089 -0.0848892 -0.177148 -0.135741 -0.171377 -0.128089 -0.176645 -0.137543 -0.177148 -0.135741 -0.000585201 -0.00495559 0.00153679 0.00189128 0.00153679 0.00189128 0.00333934 0.00820819 0 0.00153679 0 0.00333934 0 -0.000585201 0 0.00153679 -0.184332 -0.15936 -0.196896 -0.170494 -0.196896 -0.170494 -0.204911 -0.176645 -0.206451 -0.196896 -0.214574 -0.204911 -0.194608 -0.184332 -0.206451 -0.196896 -0.188444 -0.154226 -0.184331 -0.149532 -0.192088 -0.160516 -0.188444 -0.154226 -0.160516 -0.125207 -0.154226 -0.119142 -0.154226 -0.119142 -0.149532 -0.115074 -0.0443263 -0.0137984 -0.0425815 -0.0121579 -0.0137984 0.0167489 -0.0121579 0.0179732 -0.0121579 0.0179732 -0.0109934 0.0180749 -0.0425815 -0.0121579 -0.0405802 -0.0109934 -0.0086779 -0.0254397 -0.00399148 -0.0138406 -0.0149757 -0.0405144 -0.0086779 -0.0254397 -0.0405144 -0.0777593 -0.0254397 -0.0525319 -0.0254397 -0.0525319 -0.0138406 -0.0315126 -0.21235 -0.211208 -0.21603 -0.219928 -0.209812 -0.21235 -0.205684 -0.21603 -0.192088 -0.188444 -0.209812 -0.21235 -0.188444 -0.184331 -0.21235 -0.211208 0.0475343 0.0782831 0.0477647 0.0767661 0.0477647 0.0767661 0.0462501 0.0728862 0.0179732 0.0477647 0.0180749 0.0462501 0.0167489 0.0475343 0.0179732 0.0477647 -0.0364286 -0.0426104 -0.00924699 -0.0165762 -0.0635401 -0.0698112 -0.0364286 -0.0426104 -0.0698112 -0.079698 -0.0426104 -0.05143 -0.0426104 -0.05143 -0.0165762 -0.0257204 -0.173196 -0.197151 -0.177182 -0.203566 -0.167568 -0.188074 -0.173196 -0.197151 -0.188074 -0.194608 -0.197151 -0.206451 -0.197151 -0.206451 -0.203566 -0.214574 0.0382251 0.0584172 0.0327014 0.0490401 0.0327014 0.0490401 0.0269778 0.0391172 0.0137626 0.0327014 0.0122777 0.0269778 0.0155391 0.0382251 0.0137626 0.0327014 0.108129 0.135665 0.104044 0.128234 0.104044 0.128234 0.096999 0.117339 0.0767661 0.104044 0.0728862 0.096999 0.0782831 0.108129 0.0767661 0.104044 -0.0619593 -0.105116 -0.0547414 -0.103601 -0.0652738 -0.0990737 -0.0619593 -0.105116 -0.0990737 -0.105425 -0.105116 -0.125083 -0.105116 -0.125083 -0.103601 -0.137036 -0.00924699 0.0190196 -0.00287489 0.0268818 0.0190196 0.0486406 0.0268818 0.0581026 0.0268818 0.0581026 0.0334162 0.0656065 -0.00287489 0.0268818 0.00267415 0.0334162 -0.209812 -0.205684 -0.200454 -0.186699 -0.200454 -0.186699 -0.180481 -0.157631 -0.192539 -0.200454 -0.184878 -0.180481 -0.192088 -0.209812 -0.192539 -0.200454 0.00034745 -0.000506853 0.000722491 0.00154224 0 0.00034745 0 0.000722491 0 -0.000395355 0 0.00034745 -0.000395355 -0.00399148 0.00034745 -0.000506853 0.0753254 0.071302 0.108252 0.104718 0.071302 0.0656065 0.104718 0.0988417 0.104718 0.0988417 0.137793 0.132145 0.108252 0.104718 0.140289 0.137793 0.096999 0.117339 0.0871408 0.103345 0.0871408 0.103345 0.0750705 0.0870388 0.0666257 0.0871408 0.0584172 0.0750705 0.0728862 0.096999 0.0666257 0.0871408 0.234193 0.201602 0.25283 0.211679 0.211663 0.186671 0.234193 0.201602 0.186671 0.176565 0.201602 0.18747 0.201602 0.18747 0.211679 0.19364 -0.00672623 0.0137626 -0.00390139 0.0122777 -0.027691 -0.00672623 -0.020469 -0.00390139 -0.0334871 -0.00868316 -0.027691 -0.00672623 -0.00868316 0.0155391 -0.00672623 0.0137626 -0.0405802 -0.0109934 -0.0377151 -0.00997653 -0.0109934 0.0180749 -0.00997653 0.0171517 -0.00997653 0.0171517 -0.00868316 0.0155391 -0.0377151 -0.00997653 -0.0334871 -0.00868316 -0.0051746 -0.0153135 0.000689994 -0.0038317 -0.000506853 -0.0051746 0.00154224 0.000689994 -0.00399148 -0.0138406 -0.000506853 -0.0051746 -0.0138406 -0.0315126 -0.0051746 -0.0153135 -0.17891 -0.159547 -0.167679 -0.147572 -0.167679 -0.147572 -0.143975 -0.125223 -0.184332 -0.167679 -0.15936 -0.143975 -0.194608 -0.17891 -0.184332 -0.167679 -0.0857678 -0.0436688 -0.0925852 -0.0484798 -0.0436688 0 -0.0484798 0 -0.0484798 0 -0.0504874 0 -0.0925852 -0.0484798 -0.094943 -0.0504874 0.168688 0.163838 0.195081 0.191857 0.16953 0.168688 0.19364 0.195081 0.140289 0.137793 0.16953 0.168688 0.137793 0.132145 0.168688 0.163838 -0.00452905 -0.0233444 -0.0026876 -0.0149757 0 -0.00452905 0 -0.0026876 0 -0.00700889 0 -0.00452905 -0.00700889 -0.0336267 -0.00452905 -0.0233444 -0.0101123 -0.0136537 -0.0446716 -0.0547414 -0.00700889 -0.0101123 -0.0336267 -0.0446716 0 0 -0.00700889 -0.0101123 0 0 -0.0101123 -0.0136537 -0.0247191 -0.0152786 -0.00927848 -0.00484074 -0.00927848 -0.00484074 0 0 -0.0150837 -0.00927848 0 0 -0.0362611 -0.0247191 -0.0150837 -0.00927848 -0.0627612 -0.049279 -0.0294969 -0.0219634 -0.049279 -0.0362611 -0.0219634 -0.0150837 -0.0219634 -0.0150837 0 0 -0.0294969 -0.0219634 0 0 0.154898 0.18407 0.163838 0.191857 0.123216 0.154898 0.132145 0.163838 0.110797 0.14175 0.123216 0.154898 0.14175 0.171868 0.154898 0.18407 0.290725 0.531733 0.286361 0.522845 0.531733 1 0.522845 1 0.522845 1 0.510767 1 0.286361 0.522845 0.278728 0.510767 -0.125223 -0.104244 -0.0958254 -0.0779394 -0.104244 -0.0824513 -0.0779394 -0.0598732 -0.0779394 -0.0598732 -0.049279 -0.0362611 -0.0958254 -0.0779394 -0.0627612 -0.049279 -0.143975 -0.125223 -0.111977 -0.0958254 -0.111977 -0.0958254 -0.0753973 -0.0627612 -0.124991 -0.111977 -0.0857678 -0.0753973 -0.15936 -0.143975 -0.124991 -0.111977 0.00189128 -0.000542257 0.00820819 0.0108706 -0.00495559 -0.012391 0.00189128 -0.000542257 -0.012391 -