# vtk DataFile Version 3.0
#This file was generated by the deal.II library on 2020/12/25 at 15:55:27
ASCII
DATASET UNSTRUCTURED_GRID

POINTS 37308 double
-14.4425 -12.0257 0
-14.7227 -10.6395 0
-15.8534 -12.1658 0
-15.9945 -10.754 0
-14.1623 -13.4119 0
-14.4425 -12.0257 0
-15.7123 -13.5776 0
-15.8534 -12.1658 0
-12.6124 -13.2463 0
-13.0317 -11.8856 0
-14.1623 -13.4119 0
-14.4425 -12.0257 0
-13.0317 -11.8856 0
-13.451 -10.525 0
-14.4425 -12.0257 0
-14.7227 -10.6395 0
-13.2174 5.43234 0
-13.1619 4.38902 0
-12.1739 5.46496 0
-12.135 4.44839 0
-13.2729 6.47567 0
-13.2174 5.43234 0
-12.2129 6.48153 0
-12.1739 5.46496 0
-14.3329 6.4698 0
-14.2609 5.39973 0
-13.2729 6.47567 0
-13.2174 5.43234 0
-14.2609 5.39973 0
-14.1889 4.32966 0
-13.2174 5.43234 0
-13.1619 4.38902 0
-9.09454 -15.6392 0
-8.89627 -14.5214 0
-10.2552 -15.4133 0
-10.0167 -14.2635 0
-9.29281 -16.757 0
-9.09454 -15.6392 0
-10.4937 -16.5632 0
-10.2552 -15.4133 0
-8.09192 -16.9507 0
-7.9339 -15.865 0
-9.29281 -16.757 0
-9.09454 -15.6392 0
-7.9339 -15.865 0
-7.77588 -14.7793 0
-9.09454 -15.6392 0
-8.89627 -14.5214 0
30.7796 -10.8213 0
28.9194 -10.9442 0
30.8627 -12.7002 0
28.9692 -12.8365 0
32.6398 -10.6984 0
30.7796 -10.8213 0
32.7563 -12.564 0
30.8627 -12.7002 0
32.5234 -8.83281 0
30.6965 -8.94242 0
32.6398 -10.6984 0
30.7796 -10.8213 0
30.6965 -8.94242 0
28.8695 -9.05202 0
30.7796 -10.8213 0
28.9194 -10.9442 0
-14.5004 -23.9771 0
-14.231 -22.5518 0
-16.0682 -23.8443 0
-15.8039 -22.2097 0
-14.231 -22.5518 0
-13.9616 -21.1265 0
-15.8039 -22.2097 0
-15.5396 -20.5751 0
-15.8039 -22.2097 0
-15.5396 -20.5751 0
-17.3768 -21.8676 0
-17.1177 -20.0237 0
-16.0682 -23.8443 0
-15.8039 -22.2097 0
-17.636 -23.7114 0
-17.3768 -21.8676 0
-13.6736 1.0193 0
-13.4177 -0.157771 0
-12.7139 1.304 0
-12.4958 0.272236 0
-17.549 5.23861 0
-17.4472 4.13288 0
-16.4381 5.29438 0
-16.341 4.1955 0
-17.6507 6.34435 0
-17.549 5.23861 0
-16.5353 6.39326 0
-16.4381 5.29438 0
-18.7661 6.29543 0
-18.6598 5.18284 0
-17.6507 6.34435 0
-17.549 5.23861 0
-18.6598 5.18284 0
-18.5535 4.07026 0
-17.549 5.23861 0
-17.4472 4.13288 0
14.3072 12.6236 0
13.0451 12.0387 0
14.7831 11.4711 0
14.0092 10.9042 0
15.5693 13.2084 0
14.3072 12.6236 0
15.557 12.038 0
14.7831 11.4711 0
15.5815 14.3788 0
13.8312 13.776 0
15.5693 13.2084 0
14.3072 12.6236 0
13.8312 13.776 0
12.0809 13.1733 0
14.3072 12.6236 0
13.0451 12.0387 0
-5.96409 10.8721 0
-5.79224 10.0734 0
-5.0854 11.0441 0
-4.97042 10.251 0
-6.84278 10.7001 0
-6.61405 9.89581 0
-5.96409 10.8721 0
-5.79224 10.0734 0
34.8082 -18.5914 0
34.8303 -16.3879 0
32.7539 -18.7219 0
32.8032 -16.5747 0
34.7861 -20.7949 0
34.8082 -18.5914 0
32.7046 -20.8692 0
32.7539 -18.7219 0
36.8675 -20.7206 0
36.8625 -18.4609 0
34.7861 -20.7949 0
34.8082 -18.5914 0
36.8625 -18.4609 0
36.8574 -16.2012 0
34.8082 -18.5914 0
34.8303 -16.3879 0
-12.7934 -14.7268 0
-12.6124 -13.2463 0
-14.1926 -14.8285 0
-14.1623 -13.4119 0
-14.1926 -14.8285 0
-14.1623 -13.4119 0
-15.5919 -14.9301 0
-15.7123 -13.5776 0
-14.2229 -16.245 0
-14.1926 -14.8285 0
-15.4715 -16.2827 0
-15.5919 -14.9301 0
-12.9744 -16.2073 0
-12.7934 -14.7268 0
-14.2229 -16.245 0
-14.1926 -14.8285 0
43.321 -22.7632 0
43.3431 -20.3517 0
41.1167 -22.8551 0
41.1473 -20.477 0
43.2989 -25.1748 0
43.321 -22.7632 0
41.0861 -25.2333 0
41.1167 -22.8551 0
45.5117 -25.1164 0
45.5253 -22.6714 0
43.2989 -25.1748 0
43.321 -22.7632 0
45.5253 -22.6714 0
45.5389 -20.2263 0
43.321 -22.7632 0
43.3431 -20.3517 0
-9.31321 -7.69884 0
-8.92685 -8.45068 0
-8.59834 -7.37944 0
-8.29748 -7.95811 0
-10.0281 -8.01823 0
-9.55622 -8.94324 0
-9.31321 -7.69884 0
-8.92685 -8.45068 0
-11.2125 6.46098 0
-12.2129 6.48153 0
-11.1861 5.47174 0
-12.1739 5.46496 0
-11.1861 5.47174 0
-12.1739 5.46496 0
-11.1598 4.4825 0
-12.135 4.44839 0
-10.1983 5.47852 0
-11.1861 5.47174 0
-10.1846 4.51661 0
-11.1598 4.4825 0
-10.2121 6.44043 0
-11.2125 6.46098 0
-10.1983 5.47852 0
-11.1861 5.47174 0
-17.4472 4.13288 0
-17.3237 3.01935 0
-16.341 4.1955 0
-16.2145 3.08803 0
-18.5535 4.07026 0
-18.433 2.95066 0
-17.4472 4.13288 0
-17.3237 3.01935 0
-18.433 2.95066 0
-18.3125 1.83106 0
-17.3237 3.01935 0
-17.2002 1.90582 0
-17.3237 3.01935 0
-17.2002 1.90582 0
-16.2145 3.08803 0
-16.0879 1.98057 0
18.8691 -6.0373 0
18.264 -4.81435 0
17.6067 -6.6465 0
17.1527 -5.49816 0
19.4742 -7.26026 0
18.8691 -6.0373 0
18.0606 -7.79484 0
17.6067 -6.6465 0
20.8878 -6.72567 0
20.1315 -5.42811 0
19.4742 -7.26026 0
18.8691 -6.0373 0
-0.618012 -14.6241 0
-0.322522 -13.839 0
-1.46708 -14.3173 0
-1.06587 -13.373 0
0.231055 -14.9309 0
0.420828 -14.305 0
-0.618012 -14.6241 0
-0.322522 -13.839 0
0.420828 -14.305 0
0.610602 -13.6792 0
-0.322522 -13.839 0
-0.0270315 -13.054 0
-7.00377 -18.1957 0
-6.95151 -17.0721 0
-8.19612 -18.109 0
-8.09192 -16.9507 0
-7.05602 -19.3193 0
-7.00377 -18.1957 0
-8.30032 -19.2672 0
-8.19612 -18.109 0
-5.81173 -19.3714 0
-5.81141 -18.2824 0
-7.05602 -19.3193 0
-7.00377 -18.1957 0
-5.81141 -18.2824 0
-5.8111 -17.1934 0
-7.00377 -18.1957 0
-6.95151 -17.0721 0
14.7831 8.30805 0
15.717 9.15686 0
13.9302 9.19021 0
14.8631 10.0305 0
13.9302 9.19021 0
14.8631 10.0305 0
13.0773 10.0724 0
14.0092 10.9042 0
12.9973 8.34988 0
13.9302 9.19021 0
12.1454 9.24052 0
13.0773 10.0724 0
13.8492 7.45924 0
14.7831 8.30805 0
12.9973 8.34988 0
13.9302 9.19021 0
23.6777 -13.0883 0
21.9935 -13.1713 0
23.6508 -14.825 0
21.9743 -14.8274 0
23.6508 -14.825 0
21.9743 -14.8274 0
23.6238 -16.5617 0
21.9551 -16.4834 0
25.3273 -14.8227 0
23.6508 -14.825 0
25.2926 -16.64 0
23.6238 -16.5617 0
25.3619 -13.0053 0
23.6777 -13.0883 0
25.3273 -14.8227 0
23.6508 -14.825 0
30.0107 11.8148 0
28.4355 10.7953 0
30.446 9.43792 0
28.6352 8.94309 0
28.4355 10.7953 0
26.8602 9.77582 0
28.6352 8.94309 0
26.8244 8.44826 0
-2.39813 12.0597 0
-1.43181 12.0408 0
-2.27819 12.9678 0
-1.17426 12.9712 0
-3.36446 12.0785 0
-2.39813 12.0597 0
-3.38211 12.9644 0
-2.27819 12.9678 0
-3.3468 11.1927 0
-2.51808 11.1515 0
-3.36446 12.0785 0
-2.39813 12.0597 0
-13.2569 -7.20371 0
-12.4624 -7.46075 0
-12.9995 -6.13601 0
-12.3581 -6.60652 0
-13.5142 -8.27142 0
-12.5666 -8.31499 0
-13.2569 -7.20371 0
-12.4624 -7.46075 0
-12.5666 -8.31499 0
-11.6191 -8.35855 0
-12.4624 -7.46075 0
-11.6679 -7.7178 0
-12.4624 -7.46075 0
-11.6679 -7.7178 0
-12.3581 -6.60652 0
-11.7167 -7.07704 0
-10.1752 7.39859 0
-11.1753 7.46477 0
-10.2121 6.44043 0
-11.2125 6.46098 0
-10.1384 8.35676 0
-11.1381 8.46855 0
-10.1752 7.39859 0
-11.1753 7.46477 0
-11.1381 8.46855 0
-12.1378 8.58035 0
-11.1753 7.46477 0
-12.1753 7.53094 0
-11.1753 7.46477 0
-12.1753 7.53094 0
-11.2125 6.46098 0
-12.2129 6.48153 0
19.6153 20.4198 0
17.7449 20.2026 0
19.6233 18.692 0
18.1119 18.4637 0
19.6072 22.1477 0
17.3779 21.9415 0
19.6153 20.4198 0
17.7449 20.2026 0
17.3779 21.9415 0
15.1486 21.7353 0
17.7449 20.2026 0
15.8745 19.9853 0
17.7449 20.2026 0
15.8745 19.9853 0
18.1119 18.4637 0
16.6005 18.2353 0
-10.1846 4.51661 0
-11.1598 4.4825 0
-10.1323 3.5895 0
-11.0835 3.52564 0
-11.1598 4.4825 0
-12.135 4.44839 0
-11.0835 3.52564 0
-12.0348 3.46177 0
20.3475 14.0956 0
18.8987 14.5628 0
19.857 12.7301 0
18.4737 13.3091 0
21.7964 13.6283 0
20.3475 14.0956 0
21.2403 12.151 0
19.857 12.7301 0
22.3525 15.1056 0
20.838 15.4611 0
21.7964 13.6283 0
20.3475 14.0956 0
20.838 15.4611 0
19.3236 15.8166 0
20.3475 14.0956 0
18.8987 14.5628 0
4.4333 -26.723 0
4.11417 -25.1071 0
2.71501 -26.8284 0
2.43002 -25.269 0
4.11417 -25.1071 0
3.79505 -23.4912 0
2.43002 -25.269 0
2.14504 -23.7096 0
2.43002 -25.269 0
2.14504 -23.7096 0
0.745872 -25.4309 0
0.49503 -23.928 0
2.71501 -26.8284 0
2.43002 -25.269 0
0.996714 -26.9337 0
0.745872 -25.4309 0
9.92122 -26.3263 0
11.8088 -26.2089 0
9.58822 -24.4027 0
11.5114 -24.078 0
9.58822 -24.4027 0
11.5114 -24.078 0
9.25523 -22.479 0
11.214 -21.947 0
7.66506 -24.7273 0
9.58822 -24.4027 0
7.29649 -23.011 0
9.25523 -22.479 0
8.03363 -26.4437 0
9.92122 -26.3263 0
7.66506 -24.7273 0
9.58822 -24.4027 0
36.8675 -20.7206 0
39.0074 -20.5988 0
36.8625 -18.4609 0
38.9895 -18.2772 0
39.0074 -20.5988 0
41.1473 -20.477 0
38.9895 -18.2772 0
41.1166 -18.0936 0
38.9895 -18.2772 0
41.1166 -18.0936 0
38.9716 -15.9557 0
41.0858 -15.7101 0
36.8625 -18.4609 0
38.9895 -18.2772 0
36.8574 -16.2012 0
38.9716 -15.9557 0
18.1969 17.239 0
18.1119 18.4637 0
16.9202 17.2237 0
16.6005 18.2353 0
18.2818 16.0143 0
18.1969 17.239 0
17.24 16.212 0
16.9202 17.2237 0
19.3236 15.8166 0
19.4735 17.2543 0
18.2818 16.0143 0
18.1969 17.239 0
19.4735 17.2543 0
19.6233 18.692 0
18.1969 17.239 0
18.1119 18.4637 0
6.11021 19.7433 0
6.0114 18.4886 0
7.44366 19.657 0
7.27501 18.4213 0
6.20902 20.9979 0
6.11021 19.7433 0
7.6123 20.8927 0
7.44366 19.657 0
8.79717 12.6814 0
9.10782 13.7225 0
7.75157 12.868 0
7.97926 13.8737 0
7.75157 12.868 0
7.97926 13.8737 0
6.70596 13.0545 0
6.85069 14.0248 0
13.8373 26.2946 0
11.9255 26.4496 0
13.5203 24.3577 0
11.5918 24.7778 0
13.5203 24.3577 0
11.5918 24.7778 0
13.2034 22.4207 0
11.2581 23.1061 0
15.749 26.1397 0
13.8373 26.2946 0
15.4488 23.9375 0
13.5203 24.3577 0
17.5154 -26.0323 0
19.3878 -25.9323 0
17.3151 -24.2435 0
19.103 -24.1962 0
17.3151 -24.2435 0
19.103 -24.1962 0
17.1148 -22.4547 0
18.8182 -22.4601 0
15.5272 -24.2909 0
17.3151 -24.2435 0
15.4113 -22.4493 0
17.1148 -22.4547 0
15.643 -26.1324 0
17.5154 -26.0323 0
15.5272 -24.2909 0
17.3151 -24.2435 0
-10.0762 9.0784 0
-10.1384 8.35676 0
-9.21003 9.16098 0
-9.09551 8.3087 0
-9.21003 9.16098 0
-9.09551 8.3087 0
-8.34387 9.24355 0
-8.05259 8.26064 0
-8.30032 -19.2672 0
-8.19612 -18.109 0
-9.57334 -19.1346 0
-9.43308 -17.9458 0
-8.19612 -18.109 0
-8.09192 -16.9507 0
-9.43308 -17.9458 0
-9.29281 -16.757 0
-9.43308 -17.9458 0
-9.29281 -16.757 0
-10.67 -17.7825 0
-10.4937 -16.5632 0
-9.57334 -19.1346 0
-9.43308 -17.9458 0
-10.8464 -19.0019 0
-10.67 -17.7825 0
-13.7127 27.0442 0
-13.7649 25.6137 0
-12.1945 27.0011 0
-12.2844 25.5674 0
-15.2309 27.0872 0
-15.2455 25.66 0
-13.7127 27.0442 0
-13.7649 25.6137 0
-15.2455 25.66 0
-15.26 24.2329 0
-13.7649 25.6137 0
-13.8171 24.1832 0
-13.7649 25.6137 0
-13.8171 24.1832 0
-12.2844 25.5674 0
[...]
POINT_DATA 37308
SCALARS solution_0 double 1
LOOKUP_TABLE default
1.00015 0.999787 1.00008 0.999799 1.00048 1.00015 1.00034 1.00008 1.00068 1.00025 1.00048 1.00015 1.00025 0.999798 1.00015 0.999787 0.997649 0.9972 0.99728 0.996724 0.998114 0.997649 0.997845 0.99728 0.99837 0.997988 0.998114 0.997649 0.997988 0.997615 0.997649 0.9972 1.00216 1.00202 1.00173 1.00157 1.00224 1.00216 1.00183 1.00173 1.0027 1.00264 1.00224 1.00216 1.00264 1.00254 1.00216 1.00202 1.01006 1.01013 1.00983 1.00989 1.01 1.01006 1.00977 1.00983 1.01021 1.01027 1.01 1.01006 1.01027 1.01034 1.01006 1.01013 1.00135 1.00136 1.00107 1.00107 1.00136 1.00136 1.00107 1.00104 1.00107 1.00104 1.00081 1.00077 1.00107 1.00107 1.00082 1.00081 0.99662 0.996409 0.995988 0.995722 0.998832 0.998646 0.99858 0.998343 0.999026 0.998832 0.998829 0.99858 0.999209 0.999053 0.999026 0.998832 0.999053 0.998909 0.998832 0.998646 1.01125 1.01164 1.01155 1.01188 1.01092 1.01125 1.01126 1.01155 1.01058 1.0109 1.01092 1.01125 1.0109 1.0113 1.01125 1.01164 1.00218 1.00183 1.00297 1.00267 1.00148 1.00111 1.00218 1.00183 1.00897 1.00923 1.009 1.00926 1.00874 1.00897 1.00877 1.009 1.0087 1.00893 1.00874 1.00897 1.00893 1.0092 1.00897 1.00923 1.00096 1.00068 1.00073 1.00048 1.00073 1.00048 1.00055 1.00034 1.00092 1.00073 1.00073 1.00055 1.00116 1.00096 1.00092 1.00073 1.00841 1.00861 1.00844 1.00864 1.00825 1.00841 1.00829 1.00844 1.00822 1.00838 1.00825 1.00841 1.00838 1.00858 1.00841 1.00861 0.998498 0.999186 0.998269 0.998888 0.998708 0.999423 0.998498 0.999186 0.997574 0.997845 0.996894 0.99728 0.996894 0.99728 0.996215 0.996724 0.99649 0.996894 0.995651 0.996215 0.997314 0.997574 0.99649 0.996894 0.998646 0.998474 0.998343 0.99812 0.998909 0.998776 0.998646 0.998474 0.998776 0.998669 0.998474 0.998333 0.998474 0.998333 0.99812 0.997938 1.01167 1.01185 1.01189 1.01208 1.01146 1.01167 1.01167 1.01189 1.01129 1.01146 1.01146 1.01167 1.00694 1.00739 1.00642 1.00695 1.00741 1.00776 1.00694 1.00739 1.00776 1.00816 1.00739 1.00793 1.00321 1.00317 1.00275 1.0027 1.00322 1.00321 1.00277 1.00275 1.00369 1.0037 1.00322 1.00321 1.0037 1.00368 1.00321 1.00317 1.01241 1.01198 1.01243 1.01196 1.01243 1.01196 1.01238 1.01188 1.01299 1.01243 1.01297 1.01238 1.0129 1.01241 1.01299 1.01243 1.01016 1.01027 1.00988 1.00998 1.00988 1.00998 1.00959 1.00968 1.00979 1.00988 1.00951 1.00959 1.01006 1.01016 1.00979 1.00988 1.01004 1.01022 1.01027 1.01041 1.01022 1.01043 1.01041 1.01056 1.0058 1.0068 1.00585 1.00684 1.00484 1.0058 1.0049 1.00585 1.00473 1.00566 1.00484 1.0058 0.998525 0.998521 0.997988 0.998059 0.998993 0.998944 0.998525 0.998521 0.998944 0.99892 0.998521 0.998564 0.998521 0.998564 0.998059 0.998199 0.998072 0.998225 0.997314 0.997574 0.998784 0.998842 0.998072 0.998225 0.998842 0.998929 0.998225 0.9984 0.998225 0.9984 0.997574 0.997845 1.00911 1.00914 1.00941 1.00947 1.00884 1.00882 1.00911 1.00914 1.00882 1.00876 1.00914 1.00914 1.00914 1.00914 1.00947 1.00953 0.995651 0.996215 0.994852 0.995556 0.996215 0.996724 0.995556 0.996185 1.01027 1.01028 1.01058 1.0106 1.01025 1.01027 1.01056 1.01058 1.00996 1.00998 1.01025 1.01027 1.00998 1.00999 1.01027 1.01028 1.0064 1.00648 1.00597 1.00602 1.00648 1.00662 1.00602 1.00613 1.00602 1.00613 1.00553 1.00561 1.00597 1.00602 1.00549 1.00553 1.00751 1.00778 1.0077 1.008 1.0077 1.008 1.00799 1.00836 1.00732 1.0077 1.00753 1.00799 1.00719 1.00751 1.00732 1.0077 1.0087 1.00867 1.00893 1.00891 1.00867 1.00864 1.00891 1.00889 1.00891 1.00889 1.00918 1.00916 1.00893 1.00891 1.0092 1.00918 1.00973 1.00947 1.00976 1.00953 1.01 1.00973 1.00999 1.00976 1.00999 1.00969 1.01 1.00973 1.00969 1.00941 1.00973 1.00947 1.00806 1.00845 1.00839 1.00876 1.00774 1.00806 1.00807 1.00839 1.01174 1.01114 1.01159 1.01099 1.01159 1.01099 1.01135 1.01074 1.00803 1.00781 1.00822 1.00795 1.00822 1.00795 1.00849 1.00817 1.00821 1.00803 1.00843 1.00822 1.00828 1.00836 1.00845 1.00851 1.00845 1.00851 1.00868 1.00873 1.00834 1.00845 1.00861 1.00868 1.00816 1.00828 1.00834 1.00845 0.999274 0.998784 0.999468 0.998843 0.999468 0.998843 0.999773 0.999029 1.00277 1.00275 1.00235 1.00231 1.00275 1.0027 1.00231 1.00224 1.00231 1.00224 1.00192 1.00183 1.00235 1.00231 1.00197 1.00192 1.00153 1.0015 1.00184 1.00181 1.00124 1.00122 1.00153 1.0015 1.00122 1.00119 1.0015 1.00146 1.0015 1.00146 1.00181 1.00176 1.00765 1.00817 1.00786 1.00828 1.00786 1.00828 1.00811 1.00837 1.00739 1.00786 1.00782 1.00811 1.00702 1.00765 1.00739 1.00786 0.998843 0.997987 0.999029 0.997994 0.998784 0.998072 0.998843 0.997987 1.00109 1.00086 1.00104 1.00077 1.00136 1.00109 1.00136 1.00104 1.00133 1.00113 1.00136 1.00109 1.00113 1.00095 1.00109 1.00086 1.00781 1.00819 1.00817 1.00843 1.00753 1.00799 1.00781 1.00819 1.00799 1.00836 1.00819 1.0085 1.00923 1.00862 1.00874 1.00815 1.00862 1.00811 1.00815 1.00766 1.00218 1.00297 1.00249 1.00322 1.00249 1.00322 1.00271 1.00338 1.00184 1.00249 1.0021 1.00271 1.00148 1.00218 1.00184 1.00249 1.00761 1.0071 1.00811 1.00766 1.00719 1.00664 1.00761 1.0071 1.00664 1.006 1.0071 1.00651 1.0071 1.00651 1.00766 1.00712 1.00567 1.00575 1.00515 1.0052 1.00515 1.0052 1.00463 1.00467 1.0051 1.00515 1.00459 1.00463 1.00561 1.00567 1.0051 1.00515 1.00164 1.00129 1.00114 1.00072 0.999413 0.999413 0.999798 0.999787 0.998993 0.999005 0.999413 0.999413 0.999005 0.999082 0.999413 0.999453 0.999413 0.999453 0.999787 0.999799 0.996378 0.99614 0.996864 0.996587 0.995819 0.995662 0.996378 0.99614 0.995662 0.995556 0.99614 0.995986 0.99614 0.995986 0.996587 0.996409 1.00043 1.00025 1.00033 1.00019 1.00058 1.00043 1.00046 1.00033 1.00073 1.00055 1.00058 1.00043 1.00055 1.00034 1.00043 1.00025 1.00838 1.00811 1.00866 1.00839 1.00817 1.00789 1.00838 1.00811 1.00789 1.00756 1.00811 1.00779 1.00811 1.00779 1.00839 1.00807 0.997615 0.998003 0.997257 0.997715 0.998003 0.998343 0.997715 0.99812 0.997715 0.99812 0.99748 0.997938 0.995819 0.996378 0.996017 0.996568 0.996378 0.996864 0.996568 0.99704 0.996568 0.99704 0.99683 0.997283 0.996017 0.996568 0.996295 0.99683 1.00904 1.00931 1.00901 1.00928 1.00901 1.00928 1.00899 1.00926 1.00877 1.00901 1.00875 1.00899 1.0088 1.00904 1.00877 1.00901 1.0113 1.0107 1.01127 1.01067 1.0107 1.01013 1.01067 1.01012 1.01067 1.01012 1.01057 1.01006 1.01127 1.01067 1.01114 1.01057 1.00205 1.00243 1.00214 1.00251 1.00192 1.00231 1.00205 1.00243 1.00231 1.00275 1.00243 1.00285 1.00243 1.00285 1.00251 1.00291 0.998233 0.998316 0.997815 0.997921 0.998583 0.998649 0.998233 0.998316 0.998649 0.99876 0.998316 0.998454 0.998316 0.998454 0.997921 0.998091 0.999022 0.998578 0.998929 0.9984 0.999131 0.998757 0.999022 0.998578 0.998757 0.99837 0.998578 0.998114 0.998578 0.998114 0.9984 0.997845 1.00088 1.00134 1.00116 1.00156 1.00051 1.00088 1.00084 1.00116 1.0106 1.01058 1.01093 1.01092 1.01093 1.01092 1.01126 1.01126 1.01091 1.01093 1.01125 1.01126 1.0106 1.0106 1.01091 1.01093 1.00124 1.00155 1.00138 1.00169 1.00155 1.00192 1.00169 1.00205 1.00169 1.00205 1.0018 1.00214 1.00138 1.00169 1.00149 1.0018 1.00154 1.0021 1.0018 1.00234 1.0018 1.00234 1.002 1.0025 1.00134 1.0018 1.00156 1.002 1.00834 1.00821 1.00853 1.00843 1.00853 1.00843 1.00882 1.00876 1.0086 1.00853 1.00884 1.00882 1.00843 1.00834 1.0086 1.00853 1.00892 1.00895 1.00928 1.00927 1.00861 1.00868 1.00892 1.00895 1.00868 1.00873 1.00895 1.00896 1.00895 1.00896 1.00927 1.00924 1.00882 1.00905 1.00887 1.0091 1.00877 1.009 1.00882 1.00905 1.009 1.00926 1.00905 1.00931 1.00905 1.00931 1.0091 1.00937 1.00361 1.00364 1.00317 1.00319 1.00317 1.00319 1.00274 1.00276 1.00315 1.00317 1.00272 1.00274 1.00359 1.00361 1.00315 1.00317 1.01269 1.01304 1.01253 1.01293 1.01253 1.01293 1.01231 1.01272 1.01218 1.01253 1.01195 1.01231 1.01237 1.01269 1.01218 1.01253 1.00419 1.00376 1.00423 1.00376 1.00464 1.00419 1.00472 1.00423 1.00456 1.00415 1.00464 1.00419 1.00415 1.00375 1.00419 1.00376 1.00739 1.00782 1.00701 1.00741 1.00701 1.00739 1.00665 1.00701 1.00733 1.00772 1.00701 1.00739 1.00772 1.00816 1.00739 1.00782 1.01052 1.01056 1.01081 1.01086 1.01081 1.01086 1.01109 1.01116 1.01048 1.01052 1.01076 1.01081 1.01221 1.01238 1.01164 1.01188 1.00555 1.00508 1.00576 1.00527 1.00576 1.00527 1.00602 1.00551 1.00622 1.00576 1.0065 1.00602 1.006 1.00555 1.00622 1.00576 1.00849 1.00809 1.00898 1.00859 1.00807 1.00766 1.00849 1.00809 1.00766 1.00719 1.00809 1.00761 1.00809 1.00761 1.00859 1.00811 1.00366 1.00414 1.00368 1.00416 1.00364 1.00411 1.00366 1.00414 1.00411 1.00459 1.00414 1.00463 1.00414 1.00463 1.00416 1.00467 1.0068 1.00706 1.00635 1.00666 1.00706 1.00733 1.00666 1.00701 1.00666 1.00701 1.00624 1.00665 1.00635 1.00666 1.00588 1.00624 1.01131 1.01099 1.01114 1.01083 1.01149 1.01116 1.01131 1.01099 1.01116 1.01081 1.01099 1.01066 1.01099 1.01066 1.01083 1.01052 1.00648 1.00693 1.00662 1.00711 1.0064 1.00682 1.00648 1.00693 1.00682 1.00719 1.00693 1.00732 1.00693 1.00732 1.00711 1.00753 1.00799 1.0082 1.00778 1.008 1.00932 1.00959 1.0094 1.00968 1.00906 1.00932 1.00914 1.0094 1.00899 1.00925 1.00906 1.00932 1.00925 1.00951 1.00932 1.00959 0.999926 1.00007 0.999401 0.999514 0.999401 0.999514 0.998842 0.998929 0.999274 0.999401 0.998784 0.998842 0.99972 0.999926 0.999274 0.999401 1.00895 1.00897 1.00923 1.00924 1.0087 1.00872 1.00895 1.00897 1.00872 1.00875 1.00897 1.00899 1.00897 1.00899 1.00924 1.00926 0.998583 0.998233 0.998543 0.998177 0.998233 0.997815 0.998177 0.997739 0.998177 0.997739 0.998179 0.997736 0.998543 0.998177 0.998549 0.998179 1.01047 1.01074 1.00987 1.01015 1.00987 1.01015 1.00935 1.00964 1.0095 1.00987 1.00898 1.00935 1.0101 1.01047 1.0095 1.00987 1.01159 1.01155 1.01196 1.01188 1.0116 1.01159 1.01198 1.01196 1.01125 1.01126 1.0116 1.01159 1.01126 1.01126 1.01159 1.01155 1.00881 1.00879 1.00816 1.00793 1.00684 1.00644 1.00707 1.00667 1.00644 1.006 1.00667 1.00622 1.00667 1.00622 1.00695 1.0065 1.00707 1.00667 1.00736 1.00695 0.9972 0.996749 0.996724 0.996185 1.0101 1.0095 1.00971 1.00911 1.0095 1.00898 1.00911 1.00859 1.00911 1.00859 1.00862 1.00811 1.00971 1.00911 1.00923 1.00862 1.00345 1.00341 1.00372 1.00373 1.00319 1.00311 1.00345 1.00341 1.00311 1.00302 1.00341 1.00337 1.00341 1.00337 1.00373 1.00375 0.997988 0.998299 0.997615 0.998003 0.99837 0.998609 0.997988 0.998299 0.998609 0.998829 0.998299 0.99858 0.998299 0.99858 0.998003 0.998343 1.00863 1.00865 1.00882 1.00884 1.00861 1.00863 1.0088 1.00882 1.00846 1.00849 1.00861 1.00863 1.00849 1.00851 1.00863 1.00865 1.0092 1.00935 1.00953 1.00967 1.00935 1.00952 1.00967 1.00982 1.00967 1.00982 1.00998 1.01013 1.00953 1.00967 1.00984 1.00998 1.01275 1.01231 1.0129 1.01241 1.01231 1.01191 1.01241 1.01198 1.01195 1.01231 1.01158 1.01193 1.00549 1.00553 1.00502 1.00505 1.00553 1.00561 1.00505 1.0051 1.00505 1.0051 1.00456 1.00459 1.00502 1.00505 1.00454 1.00456 1.00782 1.00827 1.00741 1.00776 1.00816 1.00872 1.00782 1.00827 1.00827 1.00881 1.00776 1.00816 1.0092 1.00895 1.00935 1.00916 1.00895 1.00866 1.00916 1.00893 1.00916 1.00893 1.0094 1.00925 1.00935 1.00916 1.00952 1.0094 1.00996 1.00966 1.00998 1.00968 1.00966 1.00938 1.00968 1.0094 1.00968 1.0094 1.00969 1.00941 1.00998 1.00968 1.00999 1.00969 1.00582 1.00619 1.006 1.00651 1.00558 1.00581 1.00582 1.00619 1.00953 1.00924 1.00954 1.00926 1.00952 1.00923 1.00953 1.00924 0.999082 0.998881 0.999325 0.999159 0.998881 0.99876 0.999159 0.999039 0.999453 0.999583 0.999799 0.999826 0.999082 0.999325 0.999453 0.999583 0.999583 0.999687 0.999826 0.999861 0.999228 0.999026 0.999081 0.998829 1.00411 1.00418 1.00338 1.00352 1.0049 1.00488 1.00411 1.00418 1.00488 1.00483 1.00418 1.0042 1.00418 1.0042 1.00352 1.00361 1.00134 1.00135 1.00106 1.00107 1.00106 1.00107 1.00082 1.00082 1.00105 1.00106 1.00081 1.00082 1.00132 1.00134 1.00105 1.00106 0.999839 0.999794 0.999505 0.999524 0.999794 0.999781 0.999524 0.999566 0.999524 0.999566 0.999224 0.999326 0.999505 0.999524 0.999131 0.999224 1.01081 1.01099 1.01042 1.01057 1.00768 1.00728 1.00807 1.00766 1.00736 1.00695 1.00768 1.00728 1.00695 1.0065 1.00728 1.00681 1.00728 1.00681 1.00766 1.00719 1.00337 1.00335 1.00375 1.00376 1.00302 1.00297 1.00337 1.00335 1.00297 1.00291 1.00335 1.00332 1.00335 1.00332 1.00376 1.00376 1.00277 1.00235 1.00279 1.00238 1.00235 1.00197 1.00238 1.002 1.00238 1.002 1.00239 1.00201 1.00279 1.00238 1.00279 1.00239 0.998892 0.998859 0.999148 0.999119 0.998583 0.998543 0.998892 0.998859 0.998543 0.998549 0.998859 0.998863 0.998859 0.998863 0.999119 0.99912 1.0021 1.00271 1.00234 1.0029 1.00271 1.00338 1.0029 1.00352 1.0029 1.00352 1.00303 1.00361 1.00234 1.0029 1.0025 1.00303 0.997132 0.99683 0.997598 0.997283 0.997514 0.997132 0.997988 0.997598 0.996923 0.996569 0.997514 0.997132 0.996569 0.996295 0.997132 0.99683 1.01129 1.01146 1.01107 1.01123 1.01146 1.01167 1.01123 1.01142 1.01123 1.01142 1.01097 1.01114 1.01107 1.01123 1.01083 1.01097 1.00828 1.00874 1.00837 1.00874 1.00817 1.00872 1.00828 1.00874 1.00473 1.0038 1.00454 1.00355 1.0038 1.00297 1.00355 1.00267 1.00947 1.00977 1.00954 1.00986 1.00919 1.00947 1.00924 1.00954 1.00914 1.0094 1.00919 1.00947 1.0094 1.00968 1.00947 1.00977 1.00977 1.00983 1.00952 1.00957 1.00983 1.00989 1.00957 1.00963 1.00957 1.00963 1.00931 1.00937 1.00952 1.00957 1.00926 1.00931 1.00642 1.00601 1.00651 1.00611 1.00639 1.00596 1.00642 1.00601 1.00596 1.0055 1.00601 1.00555 1.00601 1.00555 1.00611 1.00566 1.00681 1.0069 1.00715 1.00723 1.00679 1.00681 1.00713 1.00715 1.00639 1.00642 1.00679 1.00681 1.00642 1.00651 1.00681 1.0069 1.00172 1.00165 1.00204 1.00196 1.00204 1.00196 1.00239 1.0023 1.0021 1.00204 1.00246 1.00239 1.00176 1.00172 1.0021 1.00204 1.00882 1.00884 1.00906 1.00908 1.00906 1.00908 1.00933 1.00935 1.00904 1.00906 1.00931 1.00933 1.0088 1.00882 1.00904 1.00906 1.0081 1.00793 1.00821 1.00803 1.00807 1.0079 1.0081 1.00793 1.0079 1.00769 1.00793 1.00771 1.00793 1.00771 1.00803 1.00781 1.00082 1.00064 1.00075 1.00057 1.00105 1.00082 1.00096 1.00075 1.0011 1.00087 1.00105 1.00082 1.00087 1.00068 1.00082 1.00064 1.00518 1.00534 1.00574 1.006 1.00504 1.00518 1.00551 1.00574 1.00456 1.00464 1.00504 1.00518 1.00464 1.00472 1.00518 1.00534 1.00001 1 1.00001 1 1.00001 1 1.00001 1 1.00003 1.00001 1.00003 1.00001 1.00004 1.00001 1.00003 1.00001 0.998333 0.998231 0.997938 0.997805 0.998669 0.99859 0.998333 0.998231 0.99859 0.998549 0.998231 0.998179 0.998231 0.998179 0.997805 0.997736 1.00771 1.00746 1.00781 1.00755 1.00769 1.00744 1.00771 1.00746 1.00744 1.00713 1.00746 1.00715 1.00746 1.00715 1.00755 1.00723 1.00034 1.00008 1.00025 1.00005 1.00008 0.999799 1.00005 0.999826 1.00005 0.999826 1.00003 0.999861 1.00025 1.00005 1.00019 1.00003 1.00866 1.00839 1.00893 1.00868 1.00839 1.00807 1.00868 1.00839 1.00868 1.00839 1.00903 1.00876 1.00893 1.00868 1.00925 1.00903 1.00409 1.00417 1.0046 1.00472 1.00404 1.00409 1.00452 1.0046 1.00355 1.00358 1.00404 1.00409 1.00358 1.00362 1.00409 1.00417 1.00811 1.00837 1.00852 1.00874 1.00782 1.00811 1.00825 1.00852 1.00173 1.00157 1.00131 1.00108 1.00131 1.00108 1.00096 1.00068 1.00147 1.00131 1.00116 1.00096 1.00183 1.00173 1.00147 1.00131 1.0052 1.00472 1.00535 1.00488 1.00535 1.00488 1.00555 1.00508 1.0058 1.00535 1.006 1.00555 1.00566 1.0052 1.0058 1.00535 1.00588 1.00568 1.00527 1.00518 1.00568 1.00544 1.00518 1.00506 1.00518 1.00506 1.0047 1.00469 1.00527 1.00518 1.0047 1.0047 1.00555 1.00509 1.00566 1.0052 1.0055 1.00502 1.00555 1.00509 1.00502 1.00452 1.00509 1.0046 1.00509 1.0046 1.0052 1.00472 1.00665 1.00701 1.00625 1.00658 1.00701 1.00741 1.00658 1.00694 1.00658 1.00694 1.0061 1.00642 1.00625 1.00658 1.00582 1.0061 1.00886 1.00935 1.00917 1.00964 1.00845 1.00886 1.00876 1.00917 1.00807 1.00849 1.00845 1.00886 1.00849 1.00898 1.00886 1.00935 1.0023 1.00233 1.00193 1.00196 1.00228 1.0023 1.0019 1.00193 1.00268 1.0027 1.00228 1.0023 1.0027 1.00272 1.0023 1.00233 1.00309 1.00309 1.00358 1.00362 1.0031 1.00309 1.00355 1.00358 1.00265 1.00262 1.0031 1.00309 1.00262 1.00259 1.00309 1.00309 1.00853 1.00865 1.00846 1.00859 1.00865 1.0088 1.00859 1.00877 1.00859 1.00877 1.00851 1.00873 1.00846 1.00859 1.00836 1.00851 1.00868 1.00868 1.00887 1.00887 1.00854 1.00853 1.00868 1.00868 1.00853 1.00852 1.00868 1.00867 1.00868 1.00867 1.00887 1.00887 1.00839 1.00854 1.00842 1.00858 1.00836 1.00851 1.00839 1.00854 1.00851 1.0087 1.00854 1.00874 1.00854 1.00874 1.00858 1.00877 1.00358 1.00405 1.00359 1.00406 1.00357 1.00406 1.00358 1.00405 1.00406 1.00454 1.00405 1.00452 1.00405 1.00452 1.00406 1.00454 1.00867 1.00868 1.00886 1.00887 1.00865 1.00867 1.00884 1.00886 1.00851 1.00853 1.00865 1.00867 1.00853 1.00854 1.00867 1.00868 1.00613 1.00624 1.00561 1.00567 1.00662 1.00679 1.00613 1.00624 1.00679 1.00702 1.00624 1.00639 1.00624 1.00639 1.00567 1.00575 0.997949 0.997081 0.998269 0.997539 0.997588 0.996544 0.997949 0.997081 0.996544 0.995632 0.997081 0.996294 0.997081 0.996294 0.997539 0.996865 1.00876 1.00849 1.00896 1.00869 1.00849 1.00817 1.00869 1.00838 1.00869 1.00838 1.00895 1.00866 1.00896 1.00869 1.0092 1.00895 1.00594 1.00597 1.00548 1.00549 1.00596 1.00594 1.0055 1.00548 1.00638 1.00636 1.00596 1.00594 1.00636 1.0064 1.00594 1.00597 0.999005 0.998636 0.999082 0.998769 0.998993 0.998525 0.999005 0.998636 0.998525 0.997988 0.998636 0.99819 0.998636 0.99819 0.998769 0.998386 1.00867 1.00864 1.00887 1.00886 1.00852 1.00848 1.00867 1.00864 1.00848 1.00843 1.00864 1.0086 1.00864 1.0086 1.00886 1.00884 1.00711 1.00742 1.00719 1.00751 1.00711 1.00741 1.00711 1.00742 1.00741 1.00766 1.00742 1.00768 1.00742 1.00768 1.00751 1.00778 1.00313 1.00315 1.0027 1.00272 1.00312 1.00313 1.00268 1.0027 1.00357 1.00358 1.00312 1.00313 1.00358 1.00359 1.00313 1.00315 1.00805 1.00817 1.00816 1.00828 1.00802 1.00814 1.00805 1.00817 1.00814 1.00823 1.00817 1.00826 1.00817 1.00826 1.00828 1.00836 1.01086 1.0109 1.01116 1.01122 1.01056 1.01058 1.01086 1.0109 1.01058 1.0106 1.0109 1.01091 1.0109 1.01091 1.01122 1.01125 1.00181 1.00176 1.00216 1.0021 1.00216 1.0021 1.00253 1.00246 1.00221 1.00216 1.00259 1.00253 1.00184 1.00181 1.00221 1.00216 1.00927 1.00924 1.0096 1.00954 1.0096 1.00954 1.00995 1.00986 1.00965 1.0096 1.01004 1.00995 1.00928 1.00927 1.00965 1.0096 1.00501 1.00502 1.00452 1.00454 1.00503 1.00501 1.00454 1.00452 1.0055 1.00548 1.00503 1.00501 1.00548 1.00549 1.00501 1.00502 1.00636 1.00676 1.0064 1.00682 1.00638 1.00677 1.00636 1.00676 1.00677 1.00711 1.00676 1.00711 1.00676 1.00711 1.00682 1.00719 1.00789 1.00799 1.00768 1.00778 1.00786 1.00789 1.00766 1.00768 1.00802 1.00805 1.00786 1.00789 1.00805 1.00816 1.00789 1.00799 0.999053 0.999251 0.998909 0.999135 1.01137 1.01158 1.01099 1.01119 1.01116 1.01137 1.01081 1.01099 1.01149 1.01171 1.01116 1.01137 1.01171 1.01195 1.01137 1.01158 1.00832 1.00823 1.00843 1.00834 1.00829 1.0082 1.00832 1.00823 1.0082 1.00807 1.00823 1.0081 1.00823 1.0081 1.00834 1.00821 1.00585 1.00684 1.00564 1.0064 1.00564 1.0064 1.00544 1.00604 1.00488 1.00564 1.00483 1.00544 1.0049 1.00585 1.00488 1.00564 1.00527 1.00582 1.00534 1.006 1.00474 1.00527 1.00472 1.00534 1.00476 1.00516 1.00474 1.00527 1.00516 1.00558 1.00527 1.00582 1.0061 1.00642 1.00554 1.00578 1.00554 1.00578 1.00495 1.00511 1.00532 1.00554 1.00481 1.00495 1.00582 1.0061 1.00532 1.00554 1.00309 1.00296 1.00362 1.00342 1.00259 1.00253 1.00309 1.00296 1.00253 1.00246 1.00296 1.00281 1.00296 1.00281 1.00342 1.00319 0.998708 0.998815 0.999423 0.999402 0.998815 0.99892 0.999402 0.99941 0.999402 0.99941 0.999962 0.999867 1.00995 1.00965 1.00995 1.00966 1.00965 1.00937 1.00966 1.00938 1.00966 1.00938 1.00966 1.00938 1.00995 1.00966 1.00996 1.00966 1.00476 1.00422 1.0048 1.00422 1.00422 1.00372 1.00422 1.00368 1.00422 1.00368 1.0042 1.00361 1.0048 1.00422 1.00483 1.0042 1.00885 1.00913 1.00886 1.00914 1.00886 1.00914 1.00889 1.00916 1.00861 1.00886 1.00864 1.00889 1.00858 1.00885 1.00861 1.00886 0.998815 0.998389 0.99892 0.998564 0.998708 0.998189 0.998815 0.998389 0.998189 0.997697 0.998389 0.997965 0.998389 0.997965 0.998564 0.998199 1.01043 1.01045 1.01056 1.01064 1.01045 1.01048 1.01064 1.01076 1.00125 1.00184 1.00154 1.0021 1.00086 1.00148 1.00125 1.00184 1.00043 0.999962 1.00022 0.999867 1.00081 1.00043 1.