# vtk DataFile Version 2.0
UVP for 2D  problem
ASCII

DATASET UNSTRUCTURED_GRID
POINTS 25 double
  0.0000000000000000  0.0000000000000000  0.0000000000000000
  0.0000000000000000  0.2500000000000000  0.0000000000000000
  0.0000000000000000  0.5000000000000000  0.0000000000000000
  0.0000000000000000  0.7500000000000000  0.0000000000000000
  0.0000000000000000  1.0000000000000000  0.0000000000000000
  0.2500000000000000  0.0000000000000000  0.0000000000000000
  0.2500000000000000  0.2500000000000000  0.0000000000000000
  0.2500000000000000  0.5000000000000000  0.0000000000000000
  0.2500000000000000  0.7500000000000000  0.0000000000000000
  0.2500000000000000  1.0000000000000000  0.0000000000000000
  0.5000000000000000  0.0000000000000000  0.0000000000000000
  0.5000000000000000  0.2500000000000000  0.0000000000000000
  0.5000000000000000  0.5000000000000000  0.0000000000000000
  0.5000000000000000  0.7500000000000000  0.0000000000000000
  0.5000000000000000  1.0000000000000000  0.0000000000000000
  0.7500000000000000  0.0000000000000000  0.0000000000000000
  0.7500000000000000  0.2500000000000000  0.0000000000000000
  0.7500000000000000  0.5000000000000000  0.0000000000000000
  0.7500000000000000  0.7500000000000000  0.0000000000000000
  0.7500000000000000  1.0000000000000000  0.0000000000000000
  1.0000000000000000  0.0000000000000000  0.0000000000000000
  1.0000000000000000  0.2500000000000000  0.0000000000000000
  1.0000000000000000  0.5000000000000000  0.0000000000000000
  1.0000000000000000  0.7500000000000000  0.0000000000000000
  1.0000000000000000  1.0000000000000000  0.0000000000000000

CELLS  16  64
  3  0  1  6
  3  1  2  7
  3  2  3  8
  3  3  4  9
  3  5  6  11
  3  6  7  12
  3  7  8  13
  3  8  9  14
  3  10  11  16
  3  11  12  17
  3  12  13  18
  3  13  14  19
  3  15  16  21
  3  16  17  22
  3  17  18  23
  3  18  19  24

CELL_TYPES 16
5
5
5
5
5
5
5
5
5
5
5
5
5
5
5
5

POINT_DATA 25
SCALARS p double
LOOKUP_TABLE default
  0.0000000000000000
  0.0000000000000000
  0.0000000000000000
  0.0000000000000000
  0.0000000000000000
  0.0000000000000000
  0.0000000000000000
  0.0000000000000000
  0.0000000000000000
  0.0000000000000000
  0.0000000000000000
  0.0000000000000000
  0.0000000000000000
  0.0000000000000000
  0.0000000000000000
  0.0000000000000000
  0.0000000000000000
  0.0000000000000000
  0.0000000000000000
  0.0000000000000000
  0.0000000000000000
  0.0000000000000000
  0.0000000000000000
  0.0000000000000000
  0.0000000000000000
VECTORS velocity double
  0.000000  0.000000  0.000000
  0.000000  0.000000  0.000000
  0.000000  0.000000  0.000000
  0.000000  0.000000  0.000000
  0.000000  0.000000  0.000000
  0.000000  0.000000  0.000000
  0.000000  0.000000  0.000000
  0.000000  0.000000  0.000000
  0.000000  0.000000  0.000000
  0.000000  0.000000  0.000000
  0.000000  0.000000  0.000000
  0.000000  0.000000  0.000000
  0.000000  0.000000  0.000000
  0.000000  0.000000  0.000000
  0.000000  0.000000  0.000000
  0.000000  0.000000  0.000000
  0.000000  0.000000  0.000000
  0.000000  0.000000  0.000000
  0.000000  0.000000  0.000000
  0.000000  0.000000  0.000000
  1.000000  0.000000  0.000000
  1.000000  1.000000  0.000000
  1.000000  1.000000  0.000000
  1.000000  1.000000  0.000000
  1.000000  0.000000  0.000000
