# vtk DataFile Version 3.0
#This file was generated by the deal.II library on 2020/12/25 at 14:42:55
ASCII
DATASET UNSTRUCTURED_GRID

POINTS 70092 double
-14.4425 -12.0257 0
-14.7227 -10.6395 0
-15.8534 -12.1658 0
-15.9945 -10.754 0
-14.3329 6.4698 0
-14.2609 5.39973 0
-13.2729 6.47567 0
-13.2174 5.43234 0
-14.2609 5.39973 0
-14.1889 4.32966 0
-13.2174 5.43234 0
-13.1619 4.38902 0
-9.09454 -15.6392 0
-8.89627 -14.5214 0
-10.2552 -15.4133 0
-10.0167 -14.2635 0
-9.29281 -16.757 0
-9.09454 -15.6392 0
-10.4937 -16.5632 0
-10.2552 -15.4133 0
-8.09192 -16.9507 0
-7.9339 -15.865 0
-9.29281 -16.757 0
-9.09454 -15.6392 0
-7.9339 -15.865 0
-7.77588 -14.7793 0
-9.09454 -15.6392 0
-8.89627 -14.5214 0
30.7796 -10.8213 0
28.9194 -10.9442 0
30.8627 -12.7002 0
28.9692 -12.8365 0
32.6398 -10.6984 0
30.7796 -10.8213 0
32.7563 -12.564 0
30.8627 -12.7002 0
-14.5004 -23.9771 0
-14.231 -22.5518 0
-16.0682 -23.8443 0
-15.8039 -22.2097 0
-14.231 -22.5518 0
-13.9616 -21.1265 0
-15.8039 -22.2097 0
-15.5396 -20.5751 0
-15.8039 -22.2097 0
-15.5396 -20.5751 0
-17.3768 -21.8676 0
-17.1177 -20.0237 0
-16.0682 -23.8443 0
-15.8039 -22.2097 0
-17.636 -23.7114 0
-17.3768 -21.8676 0
-17.549 5.23861 0
-17.4472 4.13288 0
-16.4381 5.29438 0
-16.341 4.1955 0
-17.6507 6.34435 0
-17.549 5.23861 0
-16.5353 6.39326 0
-16.4381 5.29438 0
-18.7661 6.29543 0
-18.6598 5.18284 0
-17.6507 6.34435 0
-17.549 5.23861 0
-18.6598 5.18284 0
-18.5535 4.07026 0
-17.549 5.23861 0
-17.4472 4.13288 0
14.3072 12.6236 0
13.0451 12.0387 0
14.7831 11.4711 0
14.0092 10.9042 0
15.5693 13.2084 0
14.3072 12.6236 0
15.557 12.038 0
14.7831 11.4711 0
15.5815 14.3788 0
13.8312 13.776 0
15.5693 13.2084 0
14.3072 12.6236 0
34.8082 -18.5914 0
34.8303 -16.3879 0
32.7539 -18.7219 0
32.8032 -16.5747 0
34.7861 -20.7949 0
34.8082 -18.5914 0
32.7046 -20.8692 0
32.7539 -18.7219 0
36.8675 -20.7206 0
36.8625 -18.4609 0
34.7861 -20.7949 0
34.8082 -18.5914 0
36.8625 -18.4609 0
36.8574 -16.2012 0
34.8082 -18.5914 0
34.8303 -16.3879 0
-14.1926 -14.8285 0
-14.1623 -13.4119 0
-15.5919 -14.9301 0
-15.7123 -13.5776 0
-14.2229 -16.245 0
-14.1926 -14.8285 0
-15.4715 -16.2827 0
-15.5919 -14.9301 0
-12.9744 -16.2073 0
-12.7934 -14.7268 0
-14.2229 -16.245 0
-14.1926 -14.8285 0
-0.193881 13.369 0
0.7865 13.7667 0
-0.446844 14.3803 0
0.523342 14.7179 0
-0.446844 14.3803 0
0.523342 14.7179 0
-0.699808 15.3916 0
0.260185 15.6691 0
-1.41703 14.0426 0
-0.446844 14.3803 0
-1.6598 15.114 0
-0.699808 15.3916 0
43.321 -22.7632 0
43.3431 -20.3517 0
41.1167 -22.8551 0
41.1473 -20.477 0
43.2989 -25.1748 0
43.321 -22.7632 0
41.0861 -25.2333 0
41.1167 -22.8551 0
45.5117 -25.1164 0
45.5253 -22.6714 0
43.2989 -25.1748 0
43.321 -22.7632 0
45.5253 -22.6714 0
45.5389 -20.2263 0
43.321 -22.7632 0
43.3431 -20.3517 0
-9.31321 -7.69884 0
-8.92685 -8.45068 0
-8.59834 -7.37944 0
-8.29748 -7.95811 0
-10.0281 -8.01823 0
-9.55622 -8.94324 0
-9.31321 -7.69884 0
-8.92685 -8.45068 0
-9.55622 -8.94324 0
-9.08436 -9.86826 0
-8.92685 -8.45068 0
-8.54049 -9.20252 0
-8.92685 -8.45068 0
-8.54049 -9.20252 0
-8.29748 -7.95811 0
-7.99662 -8.53678 0
-17.4472 4.13288 0
-17.3237 3.01935 0
-16.341 4.1955 0
-16.2145 3.08803 0
-18.5535 4.07026 0
-18.433 2.95066 0
-17.4472 4.13288 0
-17.3237 3.01935 0
-18.433 2.95066 0
-18.3125 1.83106 0
-17.3237 3.01935 0
-17.2002 1.90582 0
-17.3237 3.01935 0
-17.2002 1.90582 0
-16.2145 3.08803 0
-16.0879 1.98057 0
-0.322522 -13.839 0
-0.0270315 -13.054 0
-1.06587 -13.373 0
-0.664665 -12.4288 0
-0.618012 -14.6241 0
-0.322522 -13.839 0
-1.46708 -14.3173 0
-1.06587 -13.373 0
0.231055 -14.9309 0
0.420828 -14.305 0
-0.618012 -14.6241 0
-0.322522 -13.839 0
0.420828 -14.305 0
0.610602 -13.6792 0
-0.322522 -13.839 0
-0.0270315 -13.054 0
-7.00377 -18.1957 0
-6.95151 -17.0721 0
-8.19612 -18.109 0
-8.09192 -16.9507 0
-7.05602 -19.3193 0
-7.00377 -18.1957 0
-8.30032 -19.2672 0
-8.19612 -18.109 0
-5.81173 -19.3714 0
-5.81141 -18.2824 0
-7.05602 -19.3193 0
-7.00377 -18.1957 0
-5.81141 -18.2824 0
-5.8111 -17.1934 0
-7.00377 -18.1957 0
-6.95151 -17.0721 0
14.7831 8.30805 0
15.717 9.15686 0
13.9302 9.19021 0
14.8631 10.0305 0
13.9302 9.19021 0
14.8631 10.0305 0
13.0773 10.0724 0
14.0092 10.9042 0
23.6777 -13.0883 0
21.9935 -13.1713 0
23.6508 -14.825 0
21.9743 -14.8274 0
23.6508 -14.825 0
21.9743 -14.8274 0
23.6238 -16.5617 0
21.9551 -16.4834 0
25.3273 -14.8227 0
23.6508 -14.825 0
25.2926 -16.64 0
23.6238 -16.5617 0
25.3619 -13.0053 0
23.6777 -13.0883 0
25.3273 -14.8227 0
23.6508 -14.825 0
-13.2569 -7.20371 0
-12.4624 -7.46075 0
-12.9995 -6.13601 0
-12.3581 -6.60652 0
-13.5142 -8.27142 0
-12.5666 -8.31499 0
-13.2569 -7.20371 0
-12.4624 -7.46075 0
-12.5666 -8.31499 0
-11.6191 -8.35855 0
-12.4624 -7.46075 0
-11.6679 -7.7178 0
-12.4624 -7.46075 0
-11.6679 -7.7178 0
-12.3581 -6.60652 0
-11.7167 -7.07704 0
19.6153 20.4198 0
17.7449 20.2026 0
19.6233 18.692 0
18.1119 18.4637 0
19.6072 22.1477 0
17.3779 21.9415 0
19.6153 20.4198 0
17.7449 20.2026 0
17.3779 21.9415 0
15.1486 21.7353 0
17.7449 20.2026 0
15.8745 19.9853 0
17.7449 20.2026 0
15.8745 19.9853 0
18.1119 18.4637 0
16.6005 18.2353 0
20.3475 14.0956 0
18.8987 14.5628 0
19.857 12.7301 0
18.4737 13.3091 0
21.7964 13.6283 0
20.3475 14.0956 0
21.2403 12.151 0
19.857 12.7301 0
22.3525 15.1056 0
20.838 15.4611 0
21.7964 13.6283 0
20.3475 14.0956 0
20.838 15.4611 0
19.3236 15.8166 0
20.3475 14.0956 0
18.8987 14.5628 0
4.4333 -26.723 0
4.11417 -25.1071 0
2.71501 -26.8284 0
2.43002 -25.269 0
4.11417 -25.1071 0
3.79505 -23.4912 0
2.43002 -25.269 0
2.14504 -23.7096 0
2.43002 -25.269 0
2.14504 -23.7096 0
0.745872 -25.4309 0
0.49503 -23.928 0
2.71501 -26.8284 0
2.43002 -25.269 0
0.996714 -26.9337 0
0.745872 -25.4309 0
8.03363 -26.4437 0
9.92122 -26.3263 0
7.66506 -24.7273 0
9.58822 -24.4027 0
36.8675 -20.7206 0
39.0074 -20.5988 0
36.8625 -18.4609 0
38.9895 -18.2772 0
39.0074 -20.5988 0
41.1473 -20.477 0
38.9895 -18.2772 0
41.1166 -18.0936 0
38.9895 -18.2772 0
41.1166 -18.0936 0
38.9716 -15.9557 0
41.0858 -15.7101 0
36.8625 -18.4609 0
38.9895 -18.2772 0
36.8574 -16.2012 0
38.9716 -15.9557 0
8.31731 -13.9978 0
8.11965 -14.819 0
9.40649 -13.9253 0
9.27805 -15.0488 0
9.40649 -13.9253 0
9.27805 -15.0488 0
10.4957 -13.8528 0
10.4364 -15.2786 0
9.53493 -12.8019 0
9.40649 -13.9253 0
10.5549 -12.427 0
10.4957 -13.8528 0
8.51497 -13.1767 0
8.31731 -13.9978 0
9.53493 -12.8019 0
9.40649 -13.9253 0
18.1969 17.239 0
18.1119 18.4637 0
16.9202 17.2237 0
16.6005 18.2353 0
18.2818 16.0143 0
18.1969 17.239 0
17.24 16.212 0
16.9202 17.2237 0
19.3236 15.8166 0
19.4735 17.2543 0
18.2818 16.0143 0
18.1969 17.239 0
19.4735 17.2543 0
19.6233 18.692 0
18.1969 17.239 0
18.1119 18.4637 0
4.80574 21.1031 0
4.77676 19.8295 0
6.20902 20.9979 0
6.11021 19.7433 0
4.77676 19.8295 0
4.74778 18.556 0
6.11021 19.7433 0
6.0114 18.4886 0
6.11021 19.7433 0
6.0114 18.4886 0
7.44366 19.657 0
7.27501 18.4213 0
6.20902 20.9979 0
6.11021 19.7433 0
7.6123 20.8927 0
7.44366 19.657 0
7.52388 11.8623 0
7.75157 12.868 0
6.56123 12.0842 0
6.70596 13.0545 0
8.48653 11.6403 0
8.79717 12.6814 0
7.52388 11.8623 0
7.75157 12.868 0
8.79717 12.6814 0
9.10782 13.7225 0
7.75157 12.868 0
7.97926 13.8737 0
7.75157 12.868 0
7.97926 13.8737 0
6.70596 13.0545 0
6.85069 14.0248 0
13.8373 26.2946 0
11.9255 26.4496 0
13.5203 24.3577 0
11.5918 24.7778 0
17.5154 -26.0323 0
19.3878 -25.9323 0
17.3151 -24.2435 0
19.103 -24.1962 0
17.3151 -24.2435 0
19.103 -24.1962 0
17.1148 -22.4547 0
18.8182 -22.4601 0
15.5272 -24.2909 0
17.3151 -24.2435 0
15.4113 -22.4493 0
17.1148 -22.4547 0
15.643 -26.1324 0
17.5154 -26.0323 0
15.5272 -24.2909 0
17.3151 -24.2435 0
-9.32456 10.0133 0
-9.21003 9.16098 0
-8.63515 10.2265 0
-8.34387 9.24355 0
-10.014 9.80005 0
-10.0762 9.0784 0
-9.32456 10.0133 0
-9.21003 9.16098 0
-10.0762 9.0784 0
-10.1384 8.35676 0
-9.21003 9.16098 0
-9.09551 8.3087 0
-8.30032 -19.2672 0
-8.19612 -18.109 0
-9.57334 -19.1346 0
-9.43308 -17.9458 0
-8.19612 -18.109 0
-8.09192 -16.9507 0
-9.43308 -17.9458 0
-9.29281 -16.757 0
-9.43308 -17.9458 0
-9.29281 -16.757 0
-10.67 -17.7825 0
-10.4937 -16.5632 0
-9.57334 -19.1346 0
-9.43308 -17.9458 0
-10.8464 -19.0019 0
-10.67 -17.7825 0
-13.7127 27.0442 0
-13.7649 25.6137 0
-12.1945 27.0011 0
-12.2844 25.5674 0
-15.2309 27.0872 0
-15.2455 25.66 0
-13.7127 27.0442 0
-13.7649 25.6137 0
-15.2455 25.66 0
-15.26 24.2329 0
-13.7649 25.6137 0
-13.8171 24.1832 0
-13.7649 25.6137 0
-13.8171 24.1832 0
-12.2844 25.5674 0
-12.3743 24.1336 0
4.71775 -19.9591 0
6.60669 -19.7781 0
4.42627 -18.9523 0
5.78747 -18.8587 0
4.42627 -18.9523 0
5.78747 -18.8587 0
4.1348 -17.9454 0
4.96824 -17.9394 0
3.06508 -19.0458 0
4.42627 -18.9523 0
3.30135 -17.9514 0
4.1348 -17.9454 0
2.8288 -20.1402 0
4.71775 -19.9591 0
3.06508 -19.0458 0
4.42627 -18.9523 0
-14.9136 -19.4992 0
-16.1676 -19.122 0
-15.5396 -20.5751 0
-17.1177 -20.0237 0
-13.6596 -19.8763 0
-14.9136 -19.4992 0
-13.9616 -21.1265 0
-15.5396 -20.5751 0
-13.3577 -18.6261 0
-14.2877 -18.4232 0
-13.6596 -19.8763 0
-14.9136 -19.4992 0
-14.2877 -18.4232 0
-15.2176 -18.2203 0
-14.9136 -19.4992 0
-16.1676 -19.122 0
6.95159 -21.3945 0
8.57733 -21.119 0
6.60669 -19.7781 0
7.89943 -19.759 0
8.57733 -21.119 0
10.2031 -20.8435 0
7.89943 -19.759 0
9.19216 -19.7399 0
1.54426 14.9056 0
1.34502 15.8912 0
0.523342 14.7179 0
0.260185 15.6691 0
1.7435 13.9201 0
1.54426 14.9056 0
0.7865 13.7667 0
0.523342 14.7179 0
2.70051 14.0734 0
2.56518 15.0934 0
1.7435 13.9201 0
1.54426 14.9056 0
2.56518 15.0934 0
2.42985 16.1133 0
1.54426 14.9056 0
1.34502 15.8912 0
-6.11247 11.7726 0
-5.191 11.9279 0
-6.26085 12.673 0
-5.29661 12.8116 0
-7.03393 11.6173 0
-6.11247 11.7726 0
-7.22509 12.5344 0
-6.26085 12.673 0
-6.84278 10.7001 0
-5.96409 10.8721 0
-7.03393 11.6173 0
-6.11247 11.7726 0
2.28487 17.2838 0
1.01054 17.0621 0
2.42985 16.1133 0
1.34502 15.8912 0
2.1399 18.4543 0
0.676061 18.233 0
2.28487 17.2838 0
1.01054 17.0621 0
0.147188 -22.5317 0
-0.200654 -21.1355 0
-1.32213 -22.7219 0
-1.59042 -21.3564 0
-1.32213 -22.7219 0
-1.59042 -21.3564 0
-2.79144 -22.912 0
-2.98018 -21.5773 0
-1.05384 -24.0874 0
-1.32213 -22.7219 0
[...]
POINT_DATA 70092
SCALARS solution_0 double 1
LOOKUP_TABLE default
1.00015 0.999793 1.00009 0.999803 0.998377 0.997997 0.998123 0.997661 0.997997 0.997626 0.997661 0.997214 1.00215 1.00201 1.00172 1.00156 1.00223 1.00215 1.00182 1.00172 1.00269 1.00263 1.00223 1.00215 1.00263 1.00252 1.00215 1.00201 1.01005 1.01012 1.00981 1.00987 1.00999 1.01005 1.00976 1.00981 1.00134 1.00135 1.00106 1.00106 1.00135 1.00135 1.00106 1.00104 1.00106 1.00104 1.00081 1.00077 1.00106 1.00106 1.00082 1.00081 0.998837 0.998653 0.998586 0.99835 0.999032 0.998837 0.998834 0.998586 0.999213 0.999056 0.999032 0.998837 0.999056 0.998914 0.998837 0.998653 1.01118 1.01157 1.01148 1.01181 1.01086 1.01118 1.0112 1.01148 1.01052 1.01085 1.01086 1.01118 1.00895 1.00921 1.00899 1.00924 1.00872 1.00895 1.00876 1.00899 1.00869 1.00892 1.00872 1.00895 1.00892 1.00918 1.00895 1.00921 1.00073 1.00048 1.00055 1.00034 1.00092 1.00073 1.00073 1.00055 1.00115 1.00096 1.00092 1.00073 1.0075 1.00809 1.00698 1.00753 1.00698 1.00753 1.00655 1.00706 1.00635 1.00698 1.00598 1.00655 1.00839 1.0086 1.00842 1.00862 1.00823 1.00839 1.00827 1.00842 1.0082 1.00836 1.00823 1.00839 1.00836 1.00857 1.00839 1.0086 0.998516 0.999194 0.998286 0.998907 0.998724 0.999426 0.998516 0.999194 0.999426 1.00016 0.999194 0.999877 0.999194 0.999877 0.998907 0.999524 0.998653 0.998486 0.99835 0.998131 0.998914 0.998785 0.998653 0.998486 0.998785 0.998679 0.998486 0.998347 0.998486 0.998347 0.998131 0.997949 1.00735 1.00787 1.00689 1.00753 1.0069 1.00735 1.00637 1.00689 1.00737 1.00771 1.0069 1.00735 1.00771 1.0081 1.00735 1.00787 1.00319 1.00316 1.00273 1.00269 1.0032 1.00319 1.00276 1.00273 1.00367 1.00368 1.0032 1.00319 1.00368 1.00366 1.00319 1.00316 1.01233 1.0119 1.01235 1.01188 1.01235 1.01188 1.01229 1.01181 1.01013 1.01024 1.00985 1.00994 1.00985 1.00994 1.00956 1.00965 1.00976 1.00985 1.00949 1.00956 1.01004 1.01013 1.00976 1.00985 0.998539 0.998539 0.998008 0.998079 0.999001 0.998951 0.998539 0.998539 0.998951 0.99893 0.998539 0.998579 0.998539 0.998579 0.998079 0.998218 1.00908 1.0091 1.00937 1.00944 1.00881 1.00878 1.00908 1.0091 1.00878 1.00872 1.0091 1.0091 1.0091 1.0091 1.00944 1.00949 1.01024 1.01024 1.01054 1.01055 1.01022 1.01024 1.01052 1.01054 1.00993 1.00995 1.01022 1.01024 1.00995 1.00995 1.01024 1.01024 1.00637 1.00645 1.00593 1.00599 1.00645 1.00659 1.00599 1.00609 1.00599 1.00609 1.0055 1.00557 1.00593 1.00599 1.00546 1.0055 1.00715 1.00747 1.00728 1.00766 1.00869 1.00865 1.00892 1.00889 1.00865 1.00862 1.00889 1.00887 1.00889 1.00887 1.00917 1.00915 1.00892 1.00889 1.00918 1.00917 1.01089 1.01042 1.01098 1.01041 1.01098 1.01041 1.011 1.01035 1.01159 1.01098 1.01171 1.011 1.01137 1.01089 1.01159 1.01098 1.00969 1.00944 1.00972 1.00949 1.00996 1.00969 1.00995 1.00972 1.00995 1.00965 1.00996 1.00969 1.00965 1.00937 1.00969 1.00944 1.00731 1.00764 1.0077 1.00801 1.00764 1.00802 1.00801 1.00839 1.00801 1.00839 1.00834 1.0087 1.0077 1.00801 1.00803 1.00834 1.0122 1.01151 1.01196 1.01126 1.01234 1.01166 1.0122 1.01151 1.01166 1.01106 1.01151 1.01091 1.01151 1.01091 1.01126 1.01066 1.00799 1.00777 1.00818 1.00791 1.00824 1.00833 1.00841 1.00848 1.00841 1.00848 1.00864 1.00869 1.00831 1.00841 1.00857 1.00864 1.00812 1.00824 1.00831 1.00841 0.999983 0.999461 1.00033 0.999762 0.999711 0.999269 0.999983 0.999461 0.999269 0.998779 0.999461 0.99884 1.00276 1.00273 1.00234 1.0023 1.00273 1.00269 1.0023 1.00223 1.0023 1.00223 1.00191 1.00182 1.00234 1.0023 1.00196 1.00191 1.00152 1.00149 1.00182 1.00179 1.00123 1.00121 1.00152 1.00149 1.00121 1.00118 1.00149 1.00145 1.00149 1.00145 1.00179 1.00175 1.00761 1.00813 1.00782 1.00823 1.00782 1.00823 1.00806 1.00833 1.00735 1.00782 1.00777 1.00806 1.00698 1.00761 1.00735 1.00782 1.00108 1.00086 1.00104 1.00077 1.00135 1.00108 1.00135 1.00104 1.00133 1.00113 1.00135 1.00108 1.00113 1.00095 1.00108 1.00086 1.00776 1.00815 1.00813 1.00839 1.00815 1.00845 1.00839 1.00861 1.00808 1.00759 1.00753 1.00706 1.00866 1.00808 1.00809 1.00753 1.00914 1.00855 1.00866 1.00808 1.00855 1.00805 1.00808 1.00759 1.00246 1.00318 1.00267 1.00334 1.00182 1.00246 1.00208 1.00267 1.00146 1.00214 1.00182 1.00246 1.00756 1.00704 1.00805 1.00759 1.00714 1.00658 1.00756 1.00704 1.00563 1.00572 1.00512 1.00517 1.00512 1.00517 1.0046 1.00464 1.00507 1.00512 1.00457 1.0046 1.00557 1.00563 1.00507 1.00512 0.999424 0.999417 0.999799 0.999793 0.999417 0.999457 0.999793 0.999803 0.996407 0.996172 0.996893 0.996607 0.995855 0.995697 0.996407 0.996172 0.995697 0.99559 0.996172 0.996023 0.996172 0.996023 0.996607 0.996437 1.00073 1.00055 1.00058 1.00043 1.00055 1.00034 1.00043 1.00025 1.00834 1.00807 1.00861 1.00834 1.00812 1.00785 1.00834 1.00807 1.00785 1.00752 1.00807 1.00774 1.00807 1.00774 1.00834 1.00803 0.997626 0.998016 0.997274 0.997736 0.998016 0.99835 0.997736 0.998131 0.997736 0.998131 0.997499 0.997949 0.999937 0.999939 0.999906 0.999899 0.999939 0.999942 0.999899 0.999904 0.995855 0.996407 0.996052 0.996594 0.996407 0.996893 0.996594 0.997065 0.996594 0.997065 0.996856 0.99731 0.996052 0.996594 0.996328 0.996856 1.00903 1.0093 1.00901 1.00927 1.00901 1.00927 1.00898 1.00925 1.00877 1.00901 1.00874 1.00898 1.00879 1.00903 1.00877 1.00901 1.00007 1.00009 1.00002 1.00002 1.01063 1.01007 1.0106 1.01005 1.0106 1.01005 1.0105 1.01 1.00203 1.0024 1.00212 1.00248 1.0019 1.00229 1.00203 1.0024 1.00229 1.00273 1.0024 1.00282 1.0024 1.00282 1.00248 1.00288 0.998247 0.998329 0.997835 0.99794 0.998596 0.998658 0.998247 0.998329 0.998658 0.99877 0.998329 0.998468 0.998329 0.998468 0.99794 0.998109 0.999131 0.99876 0.999025 0.998582 0.99876 0.998377 0.998582 0.998123 1.00087 1.00132 1.00115 1.00154 1.01056 1.01052 1.01088 1.01086 1.01088 1.01086 1.0112 1.0112 1.01086 1.01088 1.01119 1.0112 1.01055 1.01056 1.01086 1.01088 1.00123 1.00154 1.00137 1.00168 1.00154 1.0019 1.00168 1.00203 1.00168 1.00203 1.00178 1.00212 1.00137 1.00168 1.00147 1.00178 1.00848 1.00751 1.00872 1.00762 1.00751 1.00659 1.00762 1.00657 1.00104 1.00151 1.00132 1.00178 1.00151 1.00208 1.00178 1.00231 1.00178 1.00231 1.00198 1.00248 1.00132 1.00178 1.00154 1.00198 1.00857 1.0085 1.00881 1.00878 1.0084 1.00831 1.00857 1.0085 1.00848 1.00872 1.00939 1.00979 1.00939 1.00979 1.01026 1.0108 1.00984 1.00982 1.01041 1.01035 1.00983 1.00984 1.01042 1.01041 1.00928 1.00932 1.00983 1.00984 1.00932 1.00933 1.00984 1.00982 1.00872 1.00919 1.00806 1.00859 1.00806 1.00859 1.0075 1.00809 1.00744 1.00806 1.00677 1.0075 1.0082 1.00872 1.00744 1.00806 0.999916 0.999925 0.999865 0.999882 0.999925 0.999937 0.999882 0.999906 0.999865 0.999882 0.999776 0.999771 1.00888 1.00892 1.00924 1.00923 1.00857 1.00864 1.00888 1.00892 1.00864 1.00869 1.00892 1.00893 1.00892 1.00893 1.00923 1.0092 1.0088 1.00903 1.00884 1.00908 1.00876 1.00899 1.0088 1.00903 1.00899 1.00924 1.00903 1.00929 1.00903 1.00929 1.00908 1.00935 1.00359 1.00362 1.00315 1.00317 1.00315 1.00317 1.00272 1.00275 1.00313 1.00315 1.0027 1.00272 1.00357 1.00359 1.00313 1.00315 0.999964 0.99995 0.999957 0.999934 0.999971 0.999968 0.999964 0.99995 0.998923 0.999489 0.999354 1.00011 0.998754 0.999354 0.999018 0.999721 0.998461 0.998923 0.998754 0.999354 1.01261 1.01295 1.01245 1.01284 1.01245 1.01284 1.01224 1.01264 1.01211 1.01245 1.01189 1.01224 1.0123 1.01261 1.01211 1.01245 1.00416 1.00373 1.00419 1.00373 1.0046 1.00416 1.00468 1.00419 1.00453 1.00412 1.0046 1.00416 1.00412 1.00372 1.00416 1.00373 1.00734 1.00777 1.00696 1.00737 1.00697 1.00734 1.0066 1.00696 1.00729 1.00767 1.00697 1.00734 1.00767 1.00811 1.00734 1.00777 1.01049 1.01052 1.01078 1.01082 1.00551 1.00504 1.00572 1.00524 1.00572 1.00524 1.00598 1.00547 1.00618 1.00572 1.00645 1.00598 1.00596 1.00551 1.00618 1.00572 1.00843 1.00803 1.00892 1.00852 1.00802 1.00761 1.00843 1.00803 1.00761 1.00714 1.00803 1.00756 1.00803 1.00756 1.00852 1.00805 1.00364 1.00411 1.00366 1.00414 1.00362 1.00409 1.00364 1.00411 1.00409 1.00457 1.00411 1.0046 1.00411 1.0046 1.00414 1.00464 1.00676 1.00701 1.00631 1.00662 1.00701 1.00729 1.00662 1.00697 1.00662 1.00697 1.0062 1.0066 1.00631 1.00662 1.00585 1.0062 1.01125 1.01094 1.01109 1.01079 1.01143 1.0111 1.01125 1.01094 1.0111 1.01075 1.01094 1.01061 1.01094 1.01061 1.01079 1.01047 1.00645 1.00689 1.00659 1.00707 1.00637 1.00678 1.00645 1.00689 1.00678 1.00715 1.00689 1.00728 1.00689 1.00728 1.00707 1.00749 1.00942 1.0097 1.00999 1.01043 1.00907 1.00942 1.0095 1.00999 1.00869 1.00891 1.00907 1.00942 1.00891 1.00909 1.00942 1.0097 1.00812 1.00831 1.00796 1.00817 1.00929 1.00956 1.00937 1.00965 1.00904 1.00929 1.00911 1.00937 1.00897 1.00922 1.00904 1.00929 1.00922 1.00949 1.00929 1.00956 0.999911 1.00007 0.999398 0.999515 0.999398 0.999515 0.998841 0.998927 0.999269 0.999398 0.998779 0.998841 0.999711 0.999911 0.999269 0.999398 1.00894 1.00896 1.00922 1.00923 1.00869 1.00872 1.00894 1.00896 1.00872 1.00874 1.00896 1.00898 1.00896 1.00898 1.00923 1.00925 0.998596 0.998247 0.998556 0.998192 0.998247 0.997835 0.998192 0.997757 0.998192 0.997757 0.998193 0.997747 0.998556 0.998192 0.998561 0.998193 0.992093 0.992409 0.990975 0.991377 0.993051 0.993293 0.992093 0.992409 0.993293 0.99366 0.992409 0.992873 0.992409 0.992873 0.991377 0.991972 1.01039 1.01066 1.0098 1.01008 1.0098 1.01008 1.00929 1.00957 1.00943 1.0098 1.00892 1.00929 1.01002 1.01039 1.00943 1.0098 1.01153 1.01148 1.01188 1.01181 1.01153 1.01153 1.0119 1.01188 1.01119 1.0112 1.01153 1.01153 1.0112 1.0112 1.01153 1.01148 1.0068 1.0064 1.00703 1.00662 1.0064 1.00596 1.00662 1.00618 1.00662 1.00618 1.00691 1.00645 1.00703 1.00662 1.00731 1.00691 0.993795 0.993912 0.994576 0.994729 1.01002 1.00943 1.00963 1.00904 1.00943 1.00892 1.00904 1.00852 1.00904 1.00852 1.00855 1.00805 1.00963 1.00904 1.00914 1.00855 1.00342 1.00339 1.00369 1.00371 1.00317 1.00309 1.00342 1.00339 1.00309 1.00299 1.00339 1.00335 1.00339 1.00335 1.00371 1.00372 0.997997 0.998309 0.997626 0.998016 0.998377 0.998615 0.997997 0.998309 0.998615 0.998834 0.998309 0.998586 0.998309 0.998586 0.998016 0.99835 1.00862 1.00864 1.00881 1.00883 1.0086 1.00862 1.00879 1.00881 1.00846 1.00848 1.0086 1.00862 1.00848 1.0085 1.00862 1.00864 1.00916 1.0093 1.00948 1.00961 1.0093 1.00947 1.00961 1.00976 1.00961 1.00976 1.00993 1.01007 1.00948 1.00961 1.00979 1.00993 1.01189 1.01224 1.01152 1.01186 1.00546 1.0055 1.00499 1.00502 1.0055 1.00557 1.00502 1.00507 1.00502 1.00507 1.00453 1.00457 1.00499 1.00502 1.00451 1.00453 1.00777 1.00822 1.00737 1.00771 1.00811 1.00867 1.00777 1.00822 1.00867 1.00934 1.00822 1.00874 1.00822 1.00874 1.00771 1.0081 1.00916 1.0089 1.0093 1.00911 1.0089 1.00861 1.00911 1.00888 1.00911 1.00888 1.00934 1.00919 1.0093 1.00911 1.00947 1.00934 1.00993 1.00963 1.00995 1.00965 1.00963 1.00936 1.00965 1.00937 1.00965 1.00937 1.00965 1.00937 1.00995 1.00965 1.00995 1.00965 0.998754 0.999018 0.997857 0.997992 0.998461 0.998754 0.99774 0.997857 1.00575 1.00598 1.00613 1.00655 1.00613 1.00655 1.00645 1.00706 1.00577 1.00613 1.00595 1.00645 1.00553 1.00575 1.00577 1.00613 1.00952 1.00923 1.00954 1.00925 1.00951 1.00922 1.00952 1.00923 0.999457 0.99958 0.999803 0.999833 0.999421 0.999229 0.999327 0.999084 0.999229 0.999032 0.999084 0.998834 1.00407 1.00413 1.00334 1.00348 1.00485 1.00483 1.00407 1.00413 1.00483 1.00478 1.00413 1.00416 1.00413 1.00416 1.00348 1.00357 1.00133 1.00134 1.00106 1.00106 1.00106 1.00106 1.00082 1.00082 1.00104 1.00106 1.00081 1.00082 1.00131 1.00133 1.00104 1.00106 1.01089 1.01107 1.01042 1.01047 1.01137 1.01169 1.01089 1.01107 1.01169 1.01203 1.01107 1.01125 0.999944 0.999905 0.999942 0.999904 0.999948 0.999913 0.999944 0.999905 0.999837 0.999792 0.999503 0.999524 0.999792 0.999778 0.999524 0.999564 0.999524 0.999564 0.999226 0.999327 0.999503 0.999524 0.999131 0.999226 1.01052 1.01066 1.0101 1.0102 1.01037 1.01052 1.01 1.0101 1.01075 1.01094 1.01037 1.01052 1.01094 1.01113 1.01052 1.01066 1.00764 1.00723 1.00802 1.00761 1.00731 1.00691 1.00764 1.00723 1.00691 1.00645 1.00723 1.00677 1.00723 1.00677 1.00761 1.00714 1.00335 1.00333 1.00372 1.00373 1.00299 1.00295 1.00335 1.00333 1.00295 1.00288 1.00333 1.00329 1.00333 1.00329 1.00373 1.00373 1.00691 1.00707 1.00595 1.00623 1.00675 1.00691 1.0057 1.00595 1.00778 1.00783 1.00675 1.00691 1.00783 1.00784 1.00691 1.00707 1.00276 1.00234 1.00277 1.00237 1.00234 1.00196 1.00237 1.00199 1.00237 1.00199 1.00237 1.002 1.00277 1.00237 1.00277 1.00237 0.998901 0.998869 0.999153 0.999127 0.998596 0.998556 0.998901 0.998869 0.998556 0.998561 0.998869 0.99887 1.00208 1.00267 1.00231 1.00286 1.00267 1.00334 1.00286 1.00348 1.00286 1.00348 1.00299 1.00357 1.00231 1.00286 1.00248 1.00299 0.997156 0.996856 0.99762 0.99731 0.997536 0.997156 0.998008 0.99762 0.996952 0.996601 0.997536 0.997156 0.996601 0.996328 0.997156 0.996856 0.993051 0.992885 0.993904 0.993793 0.992885 0.992881 0.993793 0.993795 0.993793 0.993795 0.994563 0.994576 0.993904 0.993793 0.99464 0.994563 1.01043 1.00985 1.00968 1.00919 1.01111 1.01043 1.01026 1.00968 1.01107 1.01041 1.01043 1.00985 1.01066 1.01083 1.0102 1.01029 0.993051 0.993904 0.993293 0.994117 0.993904 0.99464 0.994117 0.994829 0.994117 0.994829 0.994439 0.995112 0.993293 0.994117 0.99366 0.994439 1.01119 1.01136 1.01093 1.01109 1.00869 1.00921 1.00869 1.00909 1.00823 1.00869 1.00833 1.00869 1.00813 1.00867 1.00823 1.00869 1.00867 1.00928 1.00869 1.00921 1.00921 1.0098 1.00909 1.0097 1.00928 1.00983 1.00921 1.0098 1.00013 1.00003 1.00012 1.00003 1.00012 1.00003 1.00012 1.00003 1.00944 1.00973 1.0095 1.00982 1.00916 1.00944 1.0092 1.0095 1.00911 1.00937 1.00916 1.00944 1.00937 1.00965 1.00944 1.00973 1.00976 1.00981 1.0095 1.00955 1.00981 1.00987 1.00955 1.00961 1.00955 1.00961 1.00929 1.00935 1.0095 1.00955 1.00924 1.00929 1.00638 1.00597 1.00647 1.00607 1.00635 1.00593 1.00638 1.00597 1.00593 1.00546 1.00597 1.00552 1.00597 1.00552 1.00607 1.00562 1.00677 1.00686 1.00711 1.0072 1.00675 1.00677 1.0071 1.00711 1.00635 1.00638 1.00675 1.00677 1.00638 1.00647 1.00677 1.00686 0.998461 0.99774 0.998923 0.998179 0.99774 0.996899 0.998179 0.997282 0.998179 0.997282 0.998762 0.997861 0.998923 0.998179 0.999489 0.998762 1.0017 1.00164 1.00203 1.00195 1.00203 1.00195 1.00237 1.00229 1.00209 1.00203 1.00244 1.00237 1.00175 1.0017 1.00209 1.00203 1.00881 1.00883 1.00905 1.00907 1.00905 1.00907 1.00932 1.00934 1.00903 1.00905 1.0093 1.00932 1.00879 1.00881 1.00903 1.00905 1.00807 1.00789 1.00818 1.00799 1.00804 1.00787 1.00807 1.00789 1.00787 1.00766 1.00789 1.00768 1.00789 1.00768 1.00799 1.00777 0.999489 0.998762 1.00026 0.999547 1.00082 1.00063 1.00074 1.00057 1.00104 1.00082 1.00095 1.00074 1.00109 1.00087 1.00104 1.00082 1.00087 1.00067 1.00082 1.00063 1.00514 1.0053 1.0057 1.00595 1.005 1.00514 1.00547 1.0057 1.00453 1.0046 1.005 1.00514 1.0046 1.00468 1.00514 1.0053 1.00002 1.0001 1.00002 1.00009 1.00003 1.00011 1.00002 1.0001 1.00001 1 1.00001 1 1.00001 1 1.00001 1 1.00003 1.00001 1.00003 1.00001 1.00003 1.00001 1.00003 1.00001 0.998347 0.998245 0.997949 0.997818 0.998679 0.998601 0.998347 0.998245 0.998601 0.998561 0.998245 0.998193 0.998245 0.998193 0.997818 0.997747 1.00768 1.00742 1.00777 1.00751 1.00766 1.0074 1.00768 1.00742 1.0074 1.0071 1.00742 1.00711 1.00742 1.00711 1.00751 1.0072 1.00034 1.00009 1.00025 1.00005 1.00009 0.999803 1.00005 0.999833 1.00861 1.00834 1.00888 1.00863 1.00834 1.00803 1.00863 1.00834 1.00863 1.00834 1.00897 1.0087 1.00888 1.00863 1.00919 1.00897 1.00406 1.00414 1.00457 1.00468 1.00401 1.00406 1.00449 1.00457 1.00353 1.00355 1.00401 1.00406 1.00355 1.0036 1.00406 1.00414 1.00806 1.00833 1.00846 1.00869 1.00846 1.00869 1.00891 1.00909 1.0082 1.00846 1.00869 1.00891 1.00777 1.00806 1.0082 1.00846 1.0013 1.00107 1.00096 1.00068 1.00146 1.0013 1.00115 1.00096 1.00182 1.00172 1.00146 1.0013 1.00516 1.00468 1.00532 1.00484 1.00532 1.00484 1.00551 1.00504 1.00577 1.00532 1.00596 1.00551 1.00562 1.00516 1.00577 1.00532 1.00585 1.00565 1.00524 1.00515 1.00565 1.00541 1.00515 1.00503 1.00515 1.00503 1.00467 1.00466 1.00524 1.00515 1.00467 1.00467 1.00552 1.00505 1.00562 1.00516 1.00546 1.00499 1.00552 1.00505 1.00499 1.00449 1.00505 1.00457 1.00505 1.00457 1.00516 1.00468 1.0066 1.00696 1.00621 1.00654 1.00696 1.00737 1.00654 1.0069 1.00654 1.0069 1.00606 1.00637 1.00621 1.00654 1.00578 1.00606 1.0088 1.00929 1.00911 1.00957 1.00839 1.0088 1.0087 1.00911 1.00802 1.00843 1.00839 1.0088 1.00843 1.00892 1.0088 1.00929 1.00229 1.00232 1.00191 1.00194 1.00227 1.00229 1.00188 1.00191 1.00266 1.00268 1.00227 1.00229 1.00268 1.0027 1.00229 1.00232 1.00307 1.00307 1.00355 1.0036 1.00307 1.00307 1.00353 1.00355 1.00263 1.0026 1.00307 1.00307 1.0026 1.00257 1.00307 1.00307 1.0085 1.00862 1.00843 1.00856 1.00862 1.00876 1.00856 1.00873 1.00856 1.00873 1.00848 1.00869 1.00843 1.00856 1.00833 1.00848 1.00866 1.00866 1.00885 1.00886 1.00852 1.00852 1.00866 1.00866 1.00852 1.0085 1.00866 1.00864 1.00866 1.00864 1.00886 1.00885 1.00837 1.00852 1.0084 1.00856 1.00834 1.00849 1.00837 1.00852 1.00849 1.00869 1.00852 1.00872 1.00852 1.00872 1.00856 1.00876 1.00356 1.00403 1.00357 1.00404 1.00355 1.00403 1.00356 1.00403 1.00403 1.00451 1.00403 1.0045 1.00403 1.0045 1.00404 1.00451 1.00866 1.00866 1.00885 1.00885 1.00864 1.00866 1.00883 1.00885 1.0085 1.00852 1.00864 1.00866 1.00852 1.00852 1.00866 1.00866 1.00609 1.0062 1.00557 1.00563 1.00659 1.00675 1.00609 1.0062 1.0062 1.00635 1.00563 1.00572 1.00872 1.00846 1.00891 1.00865 1.00846 1.00812 1.00865 1.00834 1.00865 1.00834 1.0089 1.00861 1.00891 1.00865 1.00916 1.0089 1.0059 1.00593 1.00545 1.00546 1.00593 1.0059 1.00547 1.00545 1.00635 1.00633 1.00593 1.0059 1.00633 1.00637 1.0059 1.00593 0.999018 0.998653 0.999093 0.998782 0.998539 0.998008 0.998653 0.998205 0.998653 0.998205 0.998782 0.9984 1.00864 1.00862 1.00885 1.00884 1.0085 1.00846 1.00864 1.00862 1.00846 1.0084 1.00862 1.00857 1.00862 1.00857 1.00884 1.00881 1.00707 1.00738 1.00715 1.00747 1.00708 1.00738 1.00707 1.00738 1.00738 1.00762 1.00738 1.00764 1.00738 1.00764 1.00747 1.00775 1.00311 1.00313 1.00268 1.0027 1.0031 1.00311 1.00266 1.00268 1.00355 1.00356 1.0031 1.00311 1.00356 1.00357 1.00311 1.00313 1.00801 1.00814 1.00812 1.00824 1.00799 1.00811 1.00801 1.00814 1.00811 1.0082 1.00814 1.00823 1.00814 1.00823 1.00824 1.00833 1.01052 1.01054 1.01082 1.01085 1.01054 1.01055 1.01085 1.01086 1.01085 1.01086 1.01116 1.01119 1.00179 1.00175 1.00214 1.00209 1.00214 1.00209 1.00251 1.00244 1.00219 1.00214 1.00257 1.00251 1.00182 1.00179 1.00219 1.00214 1.00923 1.0092 1.00956 1.0095 1.00956 1.0095 1.00991 1.00982 1.00961 1.00956 1.01 1.00991 1.00924 1.00923 1.00961 1.00956 1.00498 1.00499 1.0045 1.00451 1.005 1.00498 1.00451 1.0045 1.00547 1.00545 1.005 1.00498 1.00545 1.00546 1.00498 1.00499 1.00633 1.00672 1.00637 1.00678 1.00635 1.00674 1.00633 1.00672 1.00674 1.00708 1.00672 1.00707 1.00672 1.00707 1.00678 1.00715 1.00785 1.00796 1.00764 1.00775 1.00783 1.00785 1.00762 1.00764 1.00799 1.00801 1.00783 1.00785 1.00801 1.00812 1.00785 1.00796 0.999056 0.999252 0.998914 0.999137 1.01131 1.01152 1.01094 1.01113 1.0111 1.01131 1.01075 1.01094 1.01143 1.01165 1.0111 1.01131 1.01165 1.01189 1.01131 1.01152 0.999948 0.999952 0.999913 0.999921 0.999952 0.999957 0.999921 0.999934 1.0083 1.0082 1.0084 1.00831 1.00826 1.00817 1.0083 1.0082 1.00817 1.00804 1.0082 1.00807 1.0082 1.00807 1.00831 1.00818 0.999983 1.00033 1.00027 1.00073 0.999911 1.00027 1.00007 1.00049 0.999711 0.999983 0.999911 1.00027 1.00559 1.00635 1.00539 1.00598 1.00483 1.00559 1.00478 1.00539 1.00522 1.00577 1.0053 1.00595 1.0047 1.00522 1.00468 1.0053 1.00471 1.00512 1.0047 1.00522 1.00512 1.00553 1.00522 1.00577 1.00606 1.00637 1.00551 1.00574 1.00551 1.00574 1.00492 1.00507 1.00529 1.00551 1.00478 1.00492 1.00578 1.00606 1.00529 1.00551 0.999885 0.999937 0.999851 0.999916 1.00307 1.00293 1.0036 1.00339 1.00257 1.00251 1.00307 1.00293 1.00251 1.00244 1.00293 1.00279 1.00293 1.00279 1.00339 1.00317 0.998724 0.998825 0.999426 0.999409 0.998825 0.99893 0.999409 0.999422 0.999409 0.999422 0.999972 0.999873 1.00993 1.00963 1.00993 1.00964 1.00963 1.00936 1.00964 1.00936 1.00964 1.00936 1.00963 1.0