# vtk DataFile Version 3.0
#This file was generated by the deal.II library on 2020/12/25 at 14:41:04
ASCII
DATASET UNSTRUCTURED_GRID

POINTS 36732 double
-14.4425 -12.0257 0
-14.7227 -10.6395 0
-15.8534 -12.1658 0
-15.9945 -10.754 0
-14.3329 6.4698 0
-14.2609 5.39973 0
-13.2729 6.47567 0
-13.2174 5.43234 0
-14.2609 5.39973 0
-14.1889 4.32966 0
-13.2174 5.43234 0
-13.1619 4.38902 0
-9.09454 -15.6392 0
-8.89627 -14.5214 0
-10.2552 -15.4133 0
-10.0167 -14.2635 0
-9.29281 -16.757 0
-9.09454 -15.6392 0
-10.4937 -16.5632 0
-10.2552 -15.4133 0
-8.09192 -16.9507 0
-7.9339 -15.865 0
-9.29281 -16.757 0
-9.09454 -15.6392 0
-7.9339 -15.865 0
-7.77588 -14.7793 0
-9.09454 -15.6392 0
-8.89627 -14.5214 0
30.7796 -10.8213 0
28.9194 -10.9442 0
30.8627 -12.7002 0
28.9692 -12.8365 0
32.6398 -10.6984 0
30.7796 -10.8213 0
32.7563 -12.564 0
30.8627 -12.7002 0
-14.5004 -23.9771 0
-14.231 -22.5518 0
-16.0682 -23.8443 0
-15.8039 -22.2097 0
-14.231 -22.5518 0
-13.9616 -21.1265 0
-15.8039 -22.2097 0
-15.5396 -20.5751 0
-15.8039 -22.2097 0
-15.5396 -20.5751 0
-17.3768 -21.8676 0
-17.1177 -20.0237 0
-16.0682 -23.8443 0
-15.8039 -22.2097 0
-17.636 -23.7114 0
-17.3768 -21.8676 0
-17.549 5.23861 0
-17.4472 4.13288 0
-16.4381 5.29438 0
-16.341 4.1955 0
-17.6507 6.34435 0
-17.549 5.23861 0
-16.5353 6.39326 0
-16.4381 5.29438 0
-18.7661 6.29543 0
-18.6598 5.18284 0
-17.6507 6.34435 0
-17.549 5.23861 0
-18.6598 5.18284 0
-18.5535 4.07026 0
-17.549 5.23861 0
-17.4472 4.13288 0
14.3072 12.6236 0
13.0451 12.0387 0
14.7831 11.4711 0
14.0092 10.9042 0
15.5693 13.2084 0
14.3072 12.6236 0
15.557 12.038 0
14.7831 11.4711 0
15.5815 14.3788 0
13.8312 13.776 0
15.5693 13.2084 0
14.3072 12.6236 0
34.8082 -18.5914 0
34.8303 -16.3879 0
32.7539 -18.7219 0
32.8032 -16.5747 0
34.7861 -20.7949 0
34.8082 -18.5914 0
32.7046 -20.8692 0
32.7539 -18.7219 0
36.8675 -20.7206 0
36.8625 -18.4609 0
34.7861 -20.7949 0
34.8082 -18.5914 0
36.8625 -18.4609 0
36.8574 -16.2012 0
34.8082 -18.5914 0
34.8303 -16.3879 0
-14.1926 -14.8285 0
-14.1623 -13.4119 0
-15.5919 -14.9301 0
-15.7123 -13.5776 0
-14.2229 -16.245 0
-14.1926 -14.8285 0
-15.4715 -16.2827 0
-15.5919 -14.9301 0
-12.9744 -16.2073 0
-12.7934 -14.7268 0
-14.2229 -16.245 0
-14.1926 -14.8285 0
-0.193881 13.369 0
0.7865 13.7667 0
-0.446844 14.3803 0
0.523342 14.7179 0
-0.446844 14.3803 0
0.523342 14.7179 0
-0.699808 15.3916 0
0.260185 15.6691 0
-1.41703 14.0426 0
-0.446844 14.3803 0
-1.6598 15.114 0
-0.699808 15.3916 0
43.321 -22.7632 0
43.3431 -20.3517 0
41.1167 -22.8551 0
41.1473 -20.477 0
43.2989 -25.1748 0
43.321 -22.7632 0
41.0861 -25.2333 0
41.1167 -22.8551 0
45.5117 -25.1164 0
45.5253 -22.6714 0
43.2989 -25.1748 0
43.321 -22.7632 0
45.5253 -22.6714 0
45.5389 -20.2263 0
43.321 -22.7632 0
43.3431 -20.3517 0
-9.31321 -7.69884 0
-8.92685 -8.45068 0
-8.59834 -7.37944 0
-8.29748 -7.95811 0
-10.0281 -8.01823 0
-9.55622 -8.94324 0
-9.31321 -7.69884 0
-8.92685 -8.45068 0
-9.55622 -8.94324 0
-9.08436 -9.86826 0
-8.92685 -8.45068 0
-8.54049 -9.20252 0
-8.92685 -8.45068 0
-8.54049 -9.20252 0
-8.29748 -7.95811 0
-7.99662 -8.53678 0
-17.4472 4.13288 0
-17.3237 3.01935 0
-16.341 4.1955 0
-16.2145 3.08803 0
-18.5535 4.07026 0
-18.433 2.95066 0
-17.4472 4.13288 0
-17.3237 3.01935 0
-18.433 2.95066 0
-18.3125 1.83106 0
-17.3237 3.01935 0
-17.2002 1.90582 0
-17.3237 3.01935 0
-17.2002 1.90582 0
-16.2145 3.08803 0
-16.0879 1.98057 0
-0.322522 -13.839 0
-0.0270315 -13.054 0
-1.06587 -13.373 0
-0.664665 -12.4288 0
-0.618012 -14.6241 0
-0.322522 -13.839 0
-1.46708 -14.3173 0
-1.06587 -13.373 0
0.231055 -14.9309 0
0.420828 -14.305 0
-0.618012 -14.6241 0
-0.322522 -13.839 0
0.420828 -14.305 0
0.610602 -13.6792 0
-0.322522 -13.839 0
-0.0270315 -13.054 0
-7.00377 -18.1957 0
-6.95151 -17.0721 0
-8.19612 -18.109 0
-8.09192 -16.9507 0
-7.05602 -19.3193 0
-7.00377 -18.1957 0
-8.30032 -19.2672 0
-8.19612 -18.109 0
-5.81173 -19.3714 0
-5.81141 -18.2824 0
-7.05602 -19.3193 0
-7.00377 -18.1957 0
-5.81141 -18.2824 0
-5.8111 -17.1934 0
-7.00377 -18.1957 0
-6.95151 -17.0721 0
14.7831 8.30805 0
15.717 9.15686 0
13.9302 9.19021 0
14.8631 10.0305 0
13.9302 9.19021 0
14.8631 10.0305 0
13.0773 10.0724 0
14.0092 10.9042 0
23.6777 -13.0883 0
21.9935 -13.1713 0
23.6508 -14.825 0
21.9743 -14.8274 0
23.6508 -14.825 0
21.9743 -14.8274 0
23.6238 -16.5617 0
21.9551 -16.4834 0
25.3273 -14.8227 0
23.6508 -14.825 0
25.2926 -16.64 0
23.6238 -16.5617 0
25.3619 -13.0053 0
23.6777 -13.0883 0
25.3273 -14.8227 0
23.6508 -14.825 0
-13.2569 -7.20371 0
-12.4624 -7.46075 0
-12.9995 -6.13601 0
-12.3581 -6.60652 0
-13.5142 -8.27142 0
-12.5666 -8.31499 0
-13.2569 -7.20371 0
-12.4624 -7.46075 0
-12.5666 -8.31499 0
-11.6191 -8.35855 0
-12.4624 -7.46075 0
-11.6679 -7.7178 0
-12.4624 -7.46075 0
-11.6679 -7.7178 0
-12.3581 -6.60652 0
-11.7167 -7.07704 0
19.6153 20.4198 0
17.7449 20.2026 0
19.6233 18.692 0
18.1119 18.4637 0
19.6072 22.1477 0
17.3779 21.9415 0
19.6153 20.4198 0
17.7449 20.2026 0
17.3779 21.9415 0
15.1486 21.7353 0
17.7449 20.2026 0
15.8745 19.9853 0
17.7449 20.2026 0
15.8745 19.9853 0
18.1119 18.4637 0
16.6005 18.2353 0
20.3475 14.0956 0
18.8987 14.5628 0
19.857 12.7301 0
18.4737 13.3091 0
21.7964 13.6283 0
20.3475 14.0956 0
21.2403 12.151 0
19.857 12.7301 0
22.3525 15.1056 0
20.838 15.4611 0
21.7964 13.6283 0
20.3475 14.0956 0
20.838 15.4611 0
19.3236 15.8166 0
20.3475 14.0956 0
18.8987 14.5628 0
4.4333 -26.723 0
4.11417 -25.1071 0
2.71501 -26.8284 0
2.43002 -25.269 0
4.11417 -25.1071 0
3.79505 -23.4912 0
2.43002 -25.269 0
2.14504 -23.7096 0
2.43002 -25.269 0
2.14504 -23.7096 0
0.745872 -25.4309 0
0.49503 -23.928 0
2.71501 -26.8284 0
2.43002 -25.269 0
0.996714 -26.9337 0
0.745872 -25.4309 0
8.03363 -26.4437 0
9.92122 -26.3263 0
7.66506 -24.7273 0
9.58822 -24.4027 0
36.8675 -20.7206 0
39.0074 -20.5988 0
36.8625 -18.4609 0
38.9895 -18.2772 0
39.0074 -20.5988 0
41.1473 -20.477 0
38.9895 -18.2772 0
41.1166 -18.0936 0
38.9895 -18.2772 0
41.1166 -18.0936 0
38.9716 -15.9557 0
41.0858 -15.7101 0
36.8625 -18.4609 0
38.9895 -18.2772 0
36.8574 -16.2012 0
38.9716 -15.9557 0
8.31731 -13.9978 0
8.11965 -14.819 0
9.40649 -13.9253 0
9.27805 -15.0488 0
9.40649 -13.9253 0
9.27805 -15.0488 0
10.4957 -13.8528 0
10.4364 -15.2786 0
9.53493 -12.8019 0
9.40649 -13.9253 0
10.5549 -12.427 0
10.4957 -13.8528 0
8.51497 -13.1767 0
8.31731 -13.9978 0
9.53493 -12.8019 0
9.40649 -13.9253 0
18.1969 17.239 0
18.1119 18.4637 0
16.9202 17.2237 0
16.6005 18.2353 0
18.2818 16.0143 0
18.1969 17.239 0
17.24 16.212 0
16.9202 17.2237 0
19.3236 15.8166 0
19.4735 17.2543 0
18.2818 16.0143 0
18.1969 17.239 0
19.4735 17.2543 0
19.6233 18.692 0
18.1969 17.239 0
18.1119 18.4637 0
4.80574 21.1031 0
4.77676 19.8295 0
6.20902 20.9979 0
6.11021 19.7433 0
4.77676 19.8295 0
4.74778 18.556 0
6.11021 19.7433 0
6.0114 18.4886 0
6.11021 19.7433 0
6.0114 18.4886 0
7.44366 19.657 0
7.27501 18.4213 0
6.20902 20.9979 0
6.11021 19.7433 0
7.6123 20.8927 0
7.44366 19.657 0
7.52388 11.8623 0
7.75157 12.868 0
6.56123 12.0842 0
6.70596 13.0545 0
8.48653 11.6403 0
8.79717 12.6814 0
7.52388 11.8623 0
7.75157 12.868 0
8.79717 12.6814 0
9.10782 13.7225 0
7.75157 12.868 0
7.97926 13.8737 0
7.75157 12.868 0
7.97926 13.8737 0
6.70596 13.0545 0
6.85069 14.0248 0
13.8373 26.2946 0
11.9255 26.4496 0
13.5203 24.3577 0
11.5918 24.7778 0
17.5154 -26.0323 0
19.3878 -25.9323 0
17.3151 -24.2435 0
19.103 -24.1962 0
17.3151 -24.2435 0
19.103 -24.1962 0
17.1148 -22.4547 0
18.8182 -22.4601 0
15.5272 -24.2909 0
17.3151 -24.2435 0
15.4113 -22.4493 0
17.1148 -22.4547 0
15.643 -26.1324 0
17.5154 -26.0323 0
15.5272 -24.2909 0
17.3151 -24.2435 0
-9.32456 10.0133 0
-9.21003 9.16098 0
-8.63515 10.2265 0
-8.34387 9.24355 0
-10.014 9.80005 0
-10.0762 9.0784 0
-9.32456 10.0133 0
-9.21003 9.16098 0
-10.0762 9.0784 0
-10.1384 8.35676 0
-9.21003 9.16098 0
-9.09551 8.3087 0
-8.30032 -19.2672 0
-8.19612 -18.109 0
-9.57334 -19.1346 0
-9.43308 -17.9458 0
-8.19612 -18.109 0
-8.09192 -16.9507 0
-9.43308 -17.9458 0
-9.29281 -16.757 0
-9.43308 -17.9458 0
-9.29281 -16.757 0
-10.67 -17.7825 0
-10.4937 -16.5632 0
-9.57334 -19.1346 0
-9.43308 -17.9458 0
-10.8464 -19.0019 0
-10.67 -17.7825 0
-13.7127 27.0442 0
-13.7649 25.6137 0
-12.1945 27.0011 0
-12.2844 25.5674 0
-15.2309 27.0872 0
-15.2455 25.66 0
-13.7127 27.0442 0
-13.7649 25.6137 0
-15.2455 25.66 0
-15.26 24.2329 0
-13.7649 25.6137 0
-13.8171 24.1832 0
-13.7649 25.6137 0
-13.8171 24.1832 0
-12.2844 25.5674 0
-12.3743 24.1336 0
4.71775 -19.9591 0
6.60669 -19.7781 0
4.42627 -18.9523 0
5.78747 -18.8587 0
4.42627 -18.9523 0
5.78747 -18.8587 0
4.1348 -17.9454 0
4.96824 -17.9394 0
3.06508 -19.0458 0
4.42627 -18.9523 0
3.30135 -17.9514 0
4.1348 -17.9454 0
2.8288 -20.1402 0
4.71775 -19.9591 0
3.06508 -19.0458 0
4.42627 -18.9523 0
-14.9136 -19.4992 0
-16.1676 -19.122 0
-15.5396 -20.5751 0
-17.1177 -20.0237 0
-13.6596 -19.8763 0
-14.9136 -19.4992 0
-13.9616 -21.1265 0
-15.5396 -20.5751 0
-13.3577 -18.6261 0
-14.2877 -18.4232 0
-13.6596 -19.8763 0
-14.9136 -19.4992 0
-14.2877 -18.4232 0
-15.2176 -18.2203 0
-14.9136 -19.4992 0
-16.1676 -19.122 0
6.95159 -21.3945 0
8.57733 -21.119 0
6.60669 -19.7781 0
7.89943 -19.759 0
8.57733 -21.119 0
10.2031 -20.8435 0
7.89943 -19.759 0
9.19216 -19.7399 0
1.54426 14.9056 0
1.34502 15.8912 0
0.523342 14.7179 0
0.260185 15.6691 0
1.7435 13.9201 0
1.54426 14.9056 0
0.7865 13.7667 0
0.523342 14.7179 0
2.70051 14.0734 0
2.56518 15.0934 0
1.7435 13.9201 0
1.54426 14.9056 0
2.56518 15.0934 0
2.42985 16.1133 0
1.54426 14.9056 0
1.34502 15.8912 0
-6.11247 11.7726 0
-5.191 11.9279 0
-6.26085 12.673 0
-5.29661 12.8116 0
-7.03393 11.6173 0
-6.11247 11.7726 0
-7.22509 12.5344 0
-6.26085 12.673 0
-6.84278 10.7001 0
-5.96409 10.8721 0
-7.03393 11.6173 0
-6.11247 11.7726 0
2.28487 17.2838 0
1.01054 17.0621 0
2.42985 16.1133 0
1.34502 15.8912 0
2.1399 18.4543 0
0.676061 18.233 0
2.28487 17.2838 0
1.01054 17.0621 0
0.147188 -22.5317 0
-0.200654 -21.1355 0
-1.32213 -22.7219 0
-1.59042 -21.3564 0
-1.32213 -22.7219 0
-1.59042 -21.3564 0
-2.79144 -22.912 0
-2.98018 -21.5773 0
-1.05384 -24.0874 0
-1.32213 -22.7219 0
[...]
POINT_DATA 36732
SCALARS solution_0 double 1
LOOKUP_TABLE default
1.00015 0.999788 1.00008 0.9998 0.998369 0.997986 0.998114 0.997648 0.997986 0.997611 0.997648 0.997197 1.00216 1.00202 1.00173 1.00157 1.00224 1.00216 1.00183 1.00173 1.0027 1.00264 1.00224 1.00216 1.00264 1.00254 1.00216 1.00202 1.01006 1.01013 1.00983 1.00989 1.01 1.01006 1.00977 1.00983 1.00135 1.00136 1.00106 1.00107 1.00136 1.00136 1.00107 1.00104 1.00107 1.00104 1.00081 1.00078 1.00106 1.00107 1.00082 1.00081 0.998831 0.998645 0.998578 0.99834 0.999028 0.998831 0.998828 0.998578 0.99921 0.999052 0.999028 0.998831 0.999052 0.998907 0.998831 0.998645 1.01125 1.01164 1.01155 1.01188 1.01092 1.01125 1.01126 1.01155 1.01057 1.01091 1.01092 1.01125 1.00897 1.00923 1.009 1.00926 1.00874 1.00897 1.00877 1.009 1.0087 1.00894 1.00874 1.00897 1.00894 1.0092 1.00897 1.00923 1.00073 1.00048 1.00055 1.00034 1.00092 1.00073 1.00073 1.00055 1.00116 1.00096 1.00092 1.00073 1.00757 1.00816 1.00705 1.0076 1.00705 1.0076 1.00661 1.00712 1.00641 1.00705 1.00604 1.00661 1.00841 1.00861 1.00844 1.00864 1.00825 1.00841 1.00829 1.00844 1.00822 1.00837 1.00825 1.00841 1.00837 1.00859 1.00841 1.00861 0.998499 0.999182 0.998267 0.998892 0.998709 0.999416 0.998499 0.999182 0.999416 1.00015 0.999182 0.999871 0.999182 0.999871 0.998892 0.999515 0.998645 0.998475 0.99834 0.998119 0.998907 0.998777 0.998645 0.998475 0.998777 0.99867 0.998475 0.998334 0.998475 0.998334 0.998119 0.997935 1.0074 1.00793 1.00694 1.00759 1.00695 1.0074 1.00642 1.00694 1.00741 1.00776 1.00695 1.0074 1.00776 1.00816 1.0074 1.00793 1.00321 1.00318 1.00275 1.0027 1.00322 1.00321 1.00277 1.00275 1.0037 1.0037 1.00322 1.00321 1.0037 1.00368 1.00321 1.00318 1.01241 1.01197 1.01243 1.01195 1.01243 1.01195 1.01237 1.01188 1.01016 1.01027 1.00988 1.00998 1.00988 1.00998 1.00959 1.00968 1.00979 1.00988 1.00951 1.00959 1.01006 1.01016 1.00979 1.00988 0.998524 0.998524 0.99799 0.99806 0.998991 0.998939 0.998524 0.998524 0.998939 0.998918 0.998524 0.998564 0.998524 0.998564 0.99806 0.9982 1.00911 1.00914 1.00941 1.00947 1.00884 1.00882 1.00911 1.00914 1.00882 1.00876 1.00914 1.00914 1.00914 1.00914 1.00947 1.00953 1.01027 1.01028 1.01058 1.01059 1.01025 1.01027 1.01056 1.01058 1.00996 1.00998 1.01025 1.01027 1.00998 1.00999 1.01027 1.01028 1.0064 1.00648 1.00596 1.00602 1.00648 1.00662 1.00602 1.00613 1.00602 1.00613 1.00553 1.00561 1.00596 1.00602 1.00549 1.00553 1.00719 1.00751 1.00732 1.0077 1.0087 1.00867 1.00894 1.00891 1.00867 1.00864 1.00891 1.00889 1.00891 1.00889 1.00918 1.00916 1.00894 1.00891 1.0092 1.00918 1.01095 1.01048 1.01104 1.01047 1.01104 1.01047 1.01107 1.01041 1.01166 1.01104 1.01178 1.01107 1.01144 1.01095 1.01166 1.01104 1.00973 1.00947 1.00976 1.00953 1.01 1.00973 1.01 1.00976 1.00999 1.00969 1.01 1.00973 1.00969 1.00941 1.00973 1.00947 1.00736 1.00769 1.00774 1.00807 1.00769 1.00807 1.00807 1.00845 1.00807 1.00845 1.00839 1.00876 1.00774 1.00807 1.00807 1.00839 1.01229 1.01159 1.01205 1.01135 1.01243 1.01174 1.01229 1.01159 1.01174 1.01114 1.01159 1.01098 1.01159 1.01098 1.01135 1.01074 1.00803 1.00781 1.00822 1.00795 1.00828 1.00836 1.00844 1.00852 1.00844 1.00852 1.00868 1.00872 1.00835 1.00844 1.0086 1.00868 1.00815 1.00828 1.00835 1.00844 0.999994 0.999469 1.00034 0.999774 0.999719 0.999273 0.999994 0.999469 0.999273 0.99878 0.999469 0.998843 1.00277 1.00275 1.00236 1.00231 1.00275 1.0027 1.00231 1.00224 1.00231 1.00224 1.00192 1.00183 1.00236 1.00231 1.00197 1.00192 1.00153 1.0015 1.00184 1.00181 1.00124 1.00122 1.00153 1.0015 1.00122 1.00119 1.0015 1.00146 1.0015 1.00146 1.00181 1.00176 1.00765 1.00818 1.00786 1.00827 1.00786 1.00827 1.00811 1.00838 1.00739 1.00786 1.00782 1.00811 1.00702 1.00765 1.00739 1.00786 1.00109 1.00086 1.00104 1.00078 1.00136 1.00109 1.00136 1.00104 1.00133 1.00113 1.00136 1.00109 1.00113 1.00095 1.00109 1.00086 1.00781 1.00819 1.00818 1.00844 1.00819 1.0085 1.00844 1.00866 1.00815 1.00766 1.0076 1.00712 1.00874 1.00815 1.00816 1.0076 1.00922 1.00862 1.00874 1.00815 1.00862 1.00811 1.00815 1.00766 1.00249 1.00322 1.0027 1.00338 1.00185 1.00249 1.0021 1.0027 1.00148 1.00217 1.00185 1.00249 1.00762 1.0071 1.00811 1.00766 1.00719 1.00663 1.00762 1.0071 1.00567 1.00575 1.00515 1.00521 1.00515 1.00521 1.00463 1.00467 1.0051 1.00515 1.00459 1.00463 1.00561 1.00567 1.0051 1.00515 0.999416 0.99941 0.999795 0.999788 0.99941 0.999451 0.999788 0.9998 0.996377 0.996141 0.996867 0.996579 0.99582 0.995661 0.996377 0.996141 0.995661 0.995554 0.996141 0.995991 0.996141 0.995991 0.996579 0.996409 1.00073 1.00055 1.00059 1.00043 1.00055 1.00034 1.00043 1.00025 1.00838 1.00811 1.00866 1.00839 1.00817 1.00789 1.00838 1.00811 1.00789 1.00756 1.00811 1.00779 1.00811 1.00779 1.00839 1.00807 0.997611 0.998004 0.997256 0.99772 0.998004 0.99834 0.99772 0.998119 0.99772 0.998119 0.997481 0.997935 0.999937 0.999939 0.999904 0.999898 0.999939 0.999942 0.999898 0.999904 0.99582 0.996377 0.996018 0.996565 0.996377 0.996867 0.996565 0.997039 0.996565 0.997039 0.996828 0.997286 0.996018 0.996565 0.996296 0.996828 1.00904 1.00931 1.00901 1.00928 1.00901 1.00928 1.00899 1.00926 1.00877 1.00901 1.00875 1.00899 1.0088 1.00904 1.00877 1.00901 1.00007 1.00009 1.00002 1.00002 1.01069 1.01013 1.01066 1.01012 1.01066 1.01012 1.01057 1.01006 1.00205 1.00243 1.00214 1.00251 1.00192 1.00231 1.00205 1.00243 1.00231 1.00275 1.00243 1.00285 1.00243 1.00285 1.00251 1.00291 0.998233 0.998315 0.997816 0.997922 0.998583 0.998646 0.998233 0.998315 0.998646 0.99876 0.998315 0.998455 0.998315 0.998455 0.997922 0.998092 0.999128 0.998756 0.999023 0.998577 0.998756 0.998369 0.998577 0.998114 1.00088 1.00134 1.00116 1.00156 1.01061 1.01057 1.01093 1.01092 1.01093 1.01092 1.01126 1.01126 1.01091 1.01093 1.01125 1.01126 1.01059 1.01061 1.01091 1.01093 1.00124 1.00155 1.00138 1.0017 1.00155 1.00192 1.0017 1.00205 1.0017 1.00205 1.0018 1.00214 1.00138 1.0017 1.00149 1.0018 1.00857 1.0076 1.00881 1.00771 1.0076 1.00666 1.00771 1.00664 1.00105 1.00153 1.00134 1.0018 1.00153 1.0021 1.0018 1.00234 1.0018 1.00234 1.002 1.0025 1.00134 1.0018 1.00156 1.002 1.0086 1.00853 1.00884 1.00882 1.00843 1.00834 1.0086 1.00853 1.00857 1.00881 1.00949 1.00989 1.00949 1.00989 1.01037 1.01091 1.0099 1.00988 1.01047 1.01041 1.00989 1.0099 1.01048 1.01047 1.00934 1.00938 1.00989 1.0099 1.00938 1.00938 1.0099 1.00988 1.00881 1.00928 1.00814 1.00867 1.00814 1.00867 1.00757 1.00816 1.00751 1.00814 1.00684 1.00757 1.00828 1.00881 1.00751 1.00814 0.999915 0.999924 0.999864 0.99988 0.999924 0.999937 0.99988 0.999904 0.999864 0.99988 0.999773 0.999765 1.00892 1.00895 1.00928 1.00927 1.0086 1.00868 1.00892 1.00895 1.00868 1.00872 1.00895 1.00897 1.00895 1.00897 1.00927 1.00924 1.00882 1.00905 1.00887 1.0091 1.00877 1.009 1.00882 1.00905 1.009 1.00926 1.00905 1.00931 1.00905 1.00931 1.0091 1.00937 1.00361 1.00364 1.00317 1.00319 1.00317 1.00319 1.00274 1.00276 1.00315 1.00317 1.00272 1.00274 1.00359 1.00361 1.00315 1.00317 0.999964 0.99995 0.999957 0.999934 0.999971 0.999968 0.999964 0.99995 0.998935 0.999507 0.999367 1.00013 0.998761 0.999367 0.999025 0.999735 0.998468 0.998935 0.998761 0.999367 1.01269 1.01303 1.01253 1.01292 1.01253 1.01292 1.01231 1.01271 1.01218 1.01253 1.01195 1.01231 1.01237 1.01269 1.01218 1.01253 1.00419 1.00376 1.00423 1.00376 1.00464 1.00419 1.00472 1.00423 1.00456 1.00415 1.00464 1.00419 1.00415 1.00375 1.00419 1.00376 1.00739 1.00782 1.00701 1.00741 1.00701 1.00739 1.00665 1.00701 1.00733 1.00772 1.00701 1.00739 1.00772 1.00816 1.00739 1.00782 1.01052 1.01056 1.01081 1.01086 1.00555 1.00508 1.00576 1.00528 1.00576 1.00528 1.00602 1.00551 1.00622 1.00576 1.0065 1.00602 1.006 1.00555 1.00622 1.00576 1.00849 1.00809 1.00898 1.00859 1.00807 1.00766 1.00849 1.00809 1.00766 1.00719 1.00809 1.00762 1.00809 1.00762 1.00859 1.00811 1.00366 1.00414 1.00368 1.00416 1.00364 1.00411 1.00366 1.00414 1.00411 1.00459 1.00414 1.00463 1.00414 1.00463 1.00416 1.00467 1.0068 1.00706 1.00635 1.00666 1.00706 1.00733 1.00666 1.00701 1.00666 1.00701 1.00624 1.00665 1.00635 1.00666 1.00588 1.00624 1.01131 1.01099 1.01114 1.01084 1.01149 1.01116 1.01131 1.01099 1.01116 1.01081 1.01099 1.01066 1.01099 1.01066 1.01084 1.01052 1.00648 1.00693 1.00662 1.00711 1.0064 1.00682 1.00648 1.00693 1.00682 1.00719 1.00693 1.00732 1.00693 1.00732 1.00711 1.00753 1.00948 1.00976 1.01006 1.01049 1.00913 1.00948 1.00956 1.01006 1.00874 1.00897 1.00913 1.00948 1.00897 1.00914 1.00948 1.00976 1.00815 1.00835 1.00799 1.0082 1.00932 1.00959 1.0094 1.00968 1.00907 1.00932 1.00914 1.0094 1.00899 1.00924 1.00907 1.00932 1.00924 1.00951 1.00932 1.00959 0.999919 1.00007 0.999402 0.999518 0.999402 0.999518 0.99884 0.998925 0.999273 0.999402 0.99878 0.99884 0.999719 0.999919 0.999273 0.999402 1.00895 1.00897 1.00923 1.00924 1.0087 1.00872 1.00895 1.00897 1.00872 1.00875 1.00897 1.00899 1.00897 1.00899 1.00924 1.00926 0.998583 0.998233 0.998544 0.998177 0.998233 0.997816 0.998177 0.997738 0.998177 0.997738 0.998178 0.997729 0.998544 0.998177 0.998551 0.998178 0.992026 0.992344 0.990898 0.991302 0.992993 0.993235 0.992026 0.992344 0.993235 0.993604 0.992344 0.99281 0.992344 0.99281 0.991302 0.991901 1.01047 1.01074 1.00987 1.01015 1.00987 1.01015 1.00935 1.00964 1.0095 1.00987 1.00898 1.00935 1.0101 1.01047 1.0095 1.00987 1.01159 1.01155 1.01195 1.01188 1.01159 1.01159 1.01197 1.01195 1.01125 1.01126 1.01159 1.01159 1.01126 1.01126 1.01159 1.01155 1.00684 1.00644 1.00707 1.00667 1.00644 1.006 1.00667 1.00622 1.00667 1.00622 1.00695 1.0065 1.00707 1.00667 1.00736 1.00695 0.993745 0.993864 0.994532 0.994687 1.0101 1.0095 1.00971 1.00911 1.0095 1.00898 1.00911 1.00859 1.00911 1.00859 1.00862 1.00811 1.00971 1.00911 1.00922 1.00862 1.00345 1.00341 1.00372 1.00374 1.00319 1.00311 1.00345 1.00341 1.00311 1.00302 1.00341 1.00337 1.00341 1.00337 1.00374 1.00375 0.997986 0.998299 0.997611 0.998004 0.998369 0.998608 0.997986 0.998299 0.998608 0.998828 0.998299 0.998578 0.998299 0.998578 0.998004 0.99834 1.00863 1.00865 1.00882 1.00884 1.00861 1.00863 1.0088 1.00882 1.00846 1.00849 1.00861 1.00863 1.00849 1.00851 1.00863 1.00865 1.00921 1.00935 1.00953 1.00967 1.00935 1.00952 1.00967 1.00982 1.00967 1.00982 1.00999 1.01013 1.00953 1.00967 1.00985 1.00999 1.01195 1.01231 1.01159 1.01193 1.00549 1.00553 1.00502 1.00505 1.00553 1.00561 1.00505 1.0051 1.00505 1.0051 1.00455 1.00459 1.00502 1.00505 1.00454 1.00455 1.00782 1.00827 1.00741 1.00776 1.00816 1.00873 1.00782 1.00827 1.00873 1.0094 1.00827 1.0088 1.00827 1.0088 1.00776 1.00816 1.00921 1.00895 1.00935 1.00916 1.00895 1.00866 1.00916 1.00893 1.00916 1.00893 1.0094 1.00925 1.00935 1.00916 1.00952 1.0094 1.00996 1.00966 1.00998 1.00968 1.00966 1.00938 1.00968 1.0094 1.00968 1.0094 1.00969 1.00941 1.00998 1.00968 1.00999 1.00969 0.998761 0.999025 0.997857 0.997991 0.998468 0.998761 0.997741 0.997857 1.0058 1.00604 1.00619 1.00661 1.00619 1.00661 1.00651 1.00712 1.00582 1.00619 1.006 1.00651 1.00558 1.0058 1.00582 1.00619 1.00953 1.00924 1.00954 1.00926 1.00952 1.00923 1.00953 1.00924 0.999451 0.999575 0.9998 0.999829 0.999419 0.999224 0.999325 0.99908 0.999224 0.999028 0.99908 0.998828 1.00411 1.00418 1.00338 1.00352 1.0049 1.00488 1.00411 1.00418 1.00488 1.00483 1.00418 1.0042 1.00418 1.0042 1.00352 1.00361 1.00134 1.00135 1.00106 1.00106 1.00106 1.00106 1.00082 1.00082 1.00105 1.00106 1.00082 1.00082 1.00132 1.00134 1.00105 1.00106 1.01095 1.01113 1.01048 1.01053 1.01144 1.01176 1.01095 1.01113 1.01176 1.01211 1.01113 1.01132 0.999944 0.999905 0.999942 0.999904 0.999948 0.999912 0.999944 0.999905 0.999841 0.999795 0.999504 0.999524 0.999795 0.99978 0.999524 0.999564 0.999524 0.999564 0.999224 0.999325 0.999504 0.999524 0.999128 0.999224 1.01057 1.01072 1.01015 1.01025 1.01042 1.01057 1.01004 1.01015 1.01081 1.01099 1.01042 1.01057 1.01099 1.01119 1.01057 1.01072 1.00769 1.00728 1.00807 1.00766 1.00736 1.00695 1.00769 1.00728 1.00695 1.0065 1.00728 1.00682 1.00728 1.00682 1.00766 1.00719 1.00337 1.00335 1.00375 1.00376 1.00302 1.00297 1.00337 1.00335 1.00297 1.00291 1.00335 1.00332 1.00335 1.00332 1.00376 1.00376 1.00696 1.00712 1.00599 1.00627 1.0068 1.00696 1.00574 1.00599 1.00784 1.00788 1.0068 1.00696 1.00788 1.0079 1.00696 1.00712 1.00277 1.00236 1.00279 1.00238 1.00236 1.00197 1.00238 1.002 1.00238 1.002 1.00239 1.00201 1.00279 1.00238 1.00279 1.00239 0.998893 0.99886 0.999146 0.999121 0.998583 0.998544 0.998893 0.99886 0.998544 0.998551 0.99886 0.99886 1.0021 1.0027 1.00234 1.0029 1.0027 1.00338 1.0029 1.00352 1.0029 1.00352 1.00303 1.00361 1.00234 1.0029 1.0025 1.00303 0.99713 0.996828 0.997599 0.997286 0.997513 0.99713 0.99799 0.997599 0.996924 0.996571 0.997513 0.99713 0.996571 0.996296 0.99713 0.996828 0.992993 0.992826 0.993853 0.993741 0.992826 0.992823 0.993741 0.993745 0.993741 0.993745 0.994518 0.994532 0.993853 0.993741 0.994594 0.994518 1.01053 1.00995 1.00978 1.00928 1.01122 1.01053 1.01037 1.00978 1.01117 1.0105 1.01053 1.00995 1.01072 1.01089 1.01025 1.01035 0.992993 0.993853 0.993235 0.994066 0.993853 0.994594 0.994066 0.994784 0.994066 0.994784 0.99439 0.99507 0.993235 0.994066 0.993604 0.99439 1.01123 1.01142 1.01097 1.01114 1.00874 1.00926 1.00874 1.00914 1.00827 1.00874 1.00838 1.00874 1.00818 1.00872 1.00827 1.00874 1.00872 1.00934 1.00874 1.00926 1.00926 1.00986 1.00914 1.00976 1.00934 1.00989 1.00926 1.00986 1.00013 1.00003 1.00013 1.00003 1.00013 1.00003 1.00012 1.00003 1.00947 1.00977 1.00954 1.00986 1.00919 1.00947 1.00924 1.00954 1.00914 1.0094 1.00919 1.00947 1.0094 1.00968 1.00947 1.00977 1.00977 1.00983 1.00952 1.00957 1.00983 1.00989 1.00957 1.00963 1.00957 1.00963 1.00931 1.00937 1.00952 1.00957 1.00926 1.00931 1.00642 1.00601 1.00651 1.0061 1.00639 1.00596 1.00642 1.00601 1.00596 1.0055 1.00601 1.00555 1.00601 1.00555 1.0061 1.00566 1.00681 1.0069 1.00715 1.00723 1.00679 1.00681 1.00713 1.00715 1.00639 1.00642 1.00679 1.00681 1.00642 1.00651 1.00681 1.0069 0.998468 0.997741 0.998935 0.998186 0.997741 0.996894 0.998186 0.997282 0.998186 0.997282 0.998776 0.997869 0.998935 0.998186 0.999507 0.998776 1.00172 1.00165 1.00204 1.00197 1.00204 1.00197 1.00239 1.0023 1.0021 1.00204 1.00246 1.00239 1.00176 1.00172 1.0021 1.00204 1.00882 1.00884 1.00906 1.00909 1.00906 1.00909 1.00933 1.00936 1.00904 1.00906 1.00931 1.00933 1.0088 1.00882 1.00904 1.00906 1.0081 1.00793 1.00821 1.00803 1.00807 1.0079 1.0081 1.00793 1.0079 1.00769 1.00793 1.00771 1.00793 1.00771 1.00803 1.00781 0.999507 0.998776 1.00029 0.99957 1.00082 1.00064 1.00075 1.00058 1.00105 1.00082 1.00097 1.00075 1.00111 1.00088 1.00105 1.00082 1.00088 1.00068 1.00082 1.00064 1.00518 1.00534 1.00574 1.006 1.00504 1.00518 1.00551 1.00574 1.00456 1.00464 1.00504 1.00518 1.00464 1.00472 1.00518 1.00534 1.00002 1.0001 1.00002 1.00009 1.00003 1.00012 1.00002 1.0001 1.00001 1 1.00001 1 1.00001 1 1.00001 1 1.00003 1.00001 1.00003 1.00001 1.00003 1.00001 1.00003 1.00001 0.998334 0.998231 0.997935 0.997802 0.99867 0.998591 0.998334 0.998231 0.998591 0.998551 0.998231 0.998178 0.998231 0.998178 0.997802 0.997729 1.00771 1.00746 1.00781 1.00754 1.00769 1.00744 1.00771 1.00746 1.00744 1.00713 1.00746 1.00715 1.00746 1.00715 1.00754 1.00723 1.00034 1.00008 1.00025 1.00005 1.00008 0.9998 1.00005 0.999829 1.00866 1.00839 1.00893 1.00869 1.00839 1.00807 1.00869 1.00839 1.00869 1.00839 1.00903 1.00876 1.00893 1.00869 1.00925 1.00903 1.00409 1.00417 1.0046 1.00472 1.00403 1.00409 1.00452 1.0046 1.00355 1.00358 1.00403 1.00409 1.00358 1.00362 1.00409 1.00417 1.00811 1.00838 1.00851 1.00874 1.00851 1.00874 1.00897 1.00914 1.00825 1.00851 1.00874 1.00897 1.00782 1.00811 1.00825 1.00851 1.00131 1.00108 1.00096 1.00068 1.00147 1.00131 1.00116 1.00096 1.00183 1.00173 1.00147 1.00131 1.0052 1.00472 1.00535 1.00488 1.00535 1.00488 1.00555 1.00508 1.0058 1.00535 1.006 1.00555 1.00566 1.0052 1.0058 1.00535 1.00588 1.00568 1.00527 1.00518 1.00568 1.00544 1.00518 1.00506 1.00518 1.00506 1.0047 1.00469 1.00527 1.00518 1.0047 1.0047 1.00555 1.00509 1.00566 1.0052 1.0055 1.00502 1.00555 1.00509 1.00502 1.00452 1.00509 1.0046 1.00509 1.0046 1.0052 1.00472 1.00665 1.00701 1.00625 1.00658 1.00701 1.00741 1.00658 1.00695 1.00658 1.00695 1.0061 1.00642 1.00625 1.00658 1.00582 1.0061 1.00887 1.00935 1.00917 1.00964 1.00845 1.00887 1.00876 1.00917 1.00807 1.00849 1.00845 1.00887 1.00849 1.00898 1.00887 1.00935 1.00231 1.00233 1.00193 1.00195 1.00228 1.00231 1.0019 1.00193 1.00267 1.00269 1.00228 1.00231 1.00269 1.00272 1.00231 1.00233 1.00309 1.00309 1.00358 1.00362 1.00309 1.00309 1.00355 1.00358 1.00265 1.00262 1.00309 1.00309 1.00262 1.00259 1.00309 1.00309 1.00853 1.00865 1.00846 1.00859 1.00865 1.00879 1.00859 1.00876 1.00859 1.00876 1.00852 1.00872 1.00846 1.00859 1.00836 1.00852 1.00867 1.00868 1.00887 1.00888 1.00853 1.00854 1.00867 1.00868 1.00854 1.00852 1.00868 1.00867 1.00868 1.00867 1.00888 1.00887 1.00839 1.00854 1.00842 1.00858 1.00836 1.00851 1.00839 1.00854 1.00851 1.0087 1.00854 1.00874 1.00854 1.00874 1.00858 1.00877 1.00358 1.00405 1.00359 1.00406 1.00357 1.00405 1.00358 1.00405 1.00405 1.00454 1.00405 1.00452 1.00405 1.00452 1.00406 1.00454 1.00867 1.00867 1.00886 1.00887 1.00865 1.00867 1.00884 1.00886 1.00851 1.00853 1.00865 1.00867 1.00853 1.00853 1.00867 1.00867 1.00613 1.00624 1.00561 1.00567 1.00662 1.00679 1.00613 1.00624 1.00624 1.00638 1.00567 1.00575 1.00876 1.0085 1.00896 1.0087 1.0085 1.00817 1.0087 1.00838 1.0087 1.00838 1.00895 1.00866 1.00896 1.0087 1.00921 1.00895 1.00594 1.00596 1.00548 1.00549 1.00596 1.00594 1.0055 1.00548 1.00638 1.00636 1.00596 1.00594 1.00636 1.0064 1.00594 1.00596 0.999009 0.99864 0.999084 0.99877 0.998524 0.99799 0.99864 0.998188 0.99864 0.998188 0.99877 0.998386 1.00867 1.00865 1.00887 1.00886 1.00852 1.00849 1.00867 1.00865 1.00849 1.00843 1.00865 1.0086 1.00865 1.0086 1.00886 1.00884 1.00711 1.00742 1.00719 1.00751 1.00711 1.00741 1.00711 1.00742 1.00741 1.00766 1.00742 1.00767 1.00742 1.00767 1.00751 1.00778 1.00313 1.00315 1.00269 1.00272 1.00312 1.00313 1.00267 1.00269 1.00357 1.00358 1.00312 1.00313 1.00358 1.00359 1.00313 1.00315 1.00805 1.00817 1.00815 1.00828 1.00802 1.00814 1.00805 1.00817 1.00814 1.00823 1.00817 1.00826 1.00817 1.00826 1.00828 1.00836 1.01056 1.01058 1.01086 1.0109 1.01058 1.01059 1.0109 1.01091 1.0109 1.01091 1.01122 1.01125 1.00181 1.00176 1.00216 1.0021 1.00216 1.0021 1.00253 1.00246 1.00221 1.00216 1.00259 1.00253 1.00184 1.00181 1.00221 1.00216 1.00927 1.00924 1.0096 1.00954 1.0096 1.00954 1.00995 1.00986 1.00965 1.0096 1.01004 1.00995 1.00928 1.00927 1.00965 1.0096 1.00501 1.00502 1.00452 1.00454 1.00503 1.00501 1.00454 1.00452 1.0055 1.00548 1.00503 1.00501 1.00548 1.00549 1.00501 1.00502 1.00636 1.00676 1.0064 1.00682 1.00638 1.00677 1.00636 1.00676 1.00677 1.00711 1.00676 1.00711 1.00676 1.00711 1.00682 1.00719 1.00788 1.00799 1.00767 1.00778 1.00786 1.00788 1.00766 1.00767 1.00802 1.00805 1.00786 1.00788 1.00805 1.00815 1.00788 1.00799 0.999052 0.999244 0.998907 0.999132 1.01137 1.01159 1.01099 1.01119 1.01116 1.01137 1.01081 1.01099 1.01149 1.01171 1.01116 1.01137 1.01171 1.01195 1.01137 1.01159 0.999948 0.999952 0.999912 0.999921 0.999952 0.999957 0.999921 0.999934 1.00832 1.00823 1.00843 1.00834 1.00829 1.0082 1.00832 1.00823 1.0082 1.00807 1.00823 1.0081 1.00823 1.0081 1.00834 1.00821 0.999994 1.00034 1.00028 1.00075 0.999919 1.00028 1.00007 1.0005 0.999719 0.999994 0.999919 1.00028 1.00564 1.00641 1.00544 1.00604 1.00488 1.00564 1.00483 1.00544 1.00527 1.00582 1.00534 1.006 1.00474 1.00527 1.00472 1.00534 1.00476 1.00516 1.00474 1.00527 1.00516 1.00558 1.00527 1.00582 1.0061 1.00642 1.00554 1.00578 1.00554 1.00578 1.00495 1.0051 1.00532 1.00554 1.00481 1.00495 1.00582 1.0061 1.00532 1.00554 0.999886 0.999936 0.999851 0.999915 1.00309 1.00296 1.00362 1.00342 1.00259 1.00253 1.00309 1.00296 1.00253 1.00246 1.00296 1.00281 1.00296 1.00281 1.00342 1.00319 0.998709 0.998812 0.999416 0.9994 0.998812 0.998918 0.9994 0.999413 0.9994 0.999413 0.999967 0.999868 1.00995 1.00965 1.00995 1.00966 1.00965 1.00937 1.00966 1.00938 1.00966 1.00938 1.00966 1.00938 1.00995 1.00966 1.00996 1.00966 