# vtk DataFile Version 3.0
#This file was generated by the deal.II library on 2020/12/27 at 13:47:31
ASCII
DATASET UNSTRUCTURED_GRID

POINTS 50736 double
0.125 0.124999 0
0.125 0.0833324 0
0.166666 0.124998 0
0.166667 0.0833322 0
0.125 0.166665 0
0.125 0.124999 0
0.166666 0.166664 0
0.166666 0.124998 0
0.0833332 0.166666 0
0.0833332 0.124999 0
0.125 0.166665 0
0.125 0.124999 0
0.0833332 0.124999 0
0.0833333 0.0833327 0
0.125 0.124999 0
0.125 0.0833324 0
0.458332 0.541659 0
0.499999 0.541659 0
0.458332 0.583326 0
0.499999 0.583326 0
0.416666 0.541659 0
0.458332 0.541659 0
0.416666 0.583326 0
0.458332 0.583326 0
0.416666 0.499992 0
0.458332 0.499992 0
0.416666 0.541659 0
0.458332 0.541659 0
0.458332 0.499992 0
0.499999 0.499992 0
0.458332 0.541659 0
0.499999 0.541659 0
0.541666 0.624993 0
0.583332 0.624993 0
0.541666 0.66666 0
0.583332 0.66666 0
0.499999 0.624993 0
0.541666 0.624993 0
0.499999 0.66666 0
0.541666 0.66666 0
0.499999 0.583326 0
0.541666 0.583326 0
0.499999 0.624993 0
0.541666 0.624993 0
0.541666 0.583326 0
0.583332 0.583326 0
0.541666 0.624993 0
0.583332 0.624993 0
0.499999 0.541659 0
0.541666 0.541659 0
0.499999 0.583326 0
0.541666 0.583326 0
0.499999 0.499992 0
0.541666 0.499992 0
0.499999 0.541659 0
0.541666 0.541659 0
0.541666 0.499992 0
0.583332 0.499992 0
0.541666 0.541659 0
0.583332 0.541659 0
0.541666 0.541659 0
0.583332 0.541659 0
0.541666 0.583326 0
0.583332 0.583326 0
0.499999 0.458326 0
0.499999 0.416659 0
0.541666 0.458326 0
0.541666 0.416659 0
0.541666 0.458326 0
0.541666 0.416659 0
0.583332 0.458326 0
0.583332 0.416659 0
0.541666 0.499992 0
0.541666 0.458326 0
0.583332 0.499992 0
0.583332 0.458326 0
0.499999 0.499992 0
0.499999 0.458326 0
0.541666 0.499992 0
0.541666 0.458326 0
0.208333 0.20833 0
0.166666 0.208331 0
0.208333 0.166664 0
0.166666 0.166664 0
0.208333 0.249996 0
0.166666 0.249997 0
0.208333 0.20833 0
0.166666 0.208331 0
0.499999 0.374993 0
0.541666 0.374993 0
0.499999 0.416659 0
0.541666 0.416659 0
0.499999 0.333326 0
0.541666 0.333326 0
0.499999 0.374993 0
0.541666 0.374993 0
0.541666 0.333326 0
0.583332 0.333327 0
0.541666 0.374993 0
0.583332 0.374993 0
0.541666 0.374993 0
0.583332 0.374993 0
0.541666 0.416659 0
0.583332 0.416659 0
0.458332 0.499992 0
0.458332 0.458326 0
0.499999 0.499992 0
0.499999 0.458326 0
0.416666 0.499992 0
0.416666 0.458326 0
0.458332 0.499992 0
0.458332 0.458326 0
0.416666 0.458326 0
0.416666 0.416659 0
0.458332 0.458326 0
0.458332 0.416659 0
0.458332 0.458326 0
0.458332 0.416659 0
0.499999 0.458326 0
0.499999 0.416659 0
0.125 0.208331 0
0.125 0.166665 0
0.166666 0.208331 0
0.166666 0.166664 0
0.125 0.249998 0
0.125 0.208331 0
0.166666 0.249997 0
0.166666 0.208331 0
0.0833331 0.249998 0
0.0833331 0.208332 0
0.125 0.249998 0
0.125 0.208331 0
0.0833331 0.208332 0
0.0833332 0.166666 0
0.125 0.208331 0
0.125 0.166665 0
0.416666 0.583326 0
0.458332 0.583326 0
0.416666 0.624993 0
0.458332 0.624993 0
0.458332 0.583326 0
0.499999 0.583326 0
0.458332 0.624993 0
0.499999 0.624993 0
0.458332 0.624993 0
0.499999 0.624993 0
0.458332 0.66666 0
0.499999 0.66666 0
0.416666 0.624993 0
0.458332 0.624993 0
0.416666 0.66666 0
0.458332 0.66666 0
0.458333 0.708327 0
0.499999 0.708327 0
0.458333 0.749994 0
0.499999 0.749994 0
0.416666 0.708327 0
0.458333 0.708327 0
0.416666 0.749994 0
0.458333 0.749994 0
0.416666 0.66666 0
0.458332 0.66666 0
0.416666 0.708327 0
0.458333 0.708327 0
0.458332 0.66666 0
0.499999 0.66666 0
0.458333 0.708327 0
0.499999 0.708327 0
0.458332 0.333326 0
0.499999 0.333326 0
0.458332 0.374993 0
0.499999 0.374993 0
0.458332 0.374993 0
0.499999 0.374993 0
0.458332 0.416659 0
0.499999 0.416659 0
0.416666 0.374993 0
0.458332 0.374993 0
0.416666 0.416659 0
0.458332 0.416659 0
0.416666 0.374993 0
0.416666 0.416659 0
0.374999 0.374993 0
0.374999 0.416659 0
0.624999 0.66666 0
0.624999 0.708328 0
0.583332 0.66666 0
0.583333 0.708327 0
0.666666 0.666661 0
0.666666 0.708328 0
0.624999 0.66666 0
0.624999 0.708328 0
0.666666 0.708328 0
0.666666 0.749995 0
0.624999 0.708328 0
0.624999 0.749995 0
0.624999 0.708328 0
0.624999 0.749995 0
0.583333 0.708327 0
0.583333 0.749995 0
0.0416666 0.125 0
0.0416666 0.083333 0
0.0833332 0.124999 0
0.0833333 0.0833327 0
0.0416666 0.166666 0
0.0416666 0.125 0
0.0833332 0.166666 0
0.0833332 0.124999 0
0 0.166667 0
0 0.125 0
0.0416666 0.166666 0
0.0416666 0.125 0
0 0.125 0
0 0.0833333 0
0.0416666 0.125 0
0.0416666 0.083333 0
0.541667 0.0416655 0
0.541667 0 0
0.583333 0.0416656 0
0.583333 0 0
0.541666 0.0833311 0
0.541667 0.0416655 0
0.583333 0.0833311 0
0.583333 0.0416656 0
0.5 0.0833311 0
0.5 0.0416655 0
0.541666 0.0833311 0
0.541667 0.0416655 0
0.5 0.0416655 0
0.5 0 0
0.541667 0.0416655 0
0.541667 0 0
0 0.0833333 0
0 0.0416667 0
0.0416666 0.083333 0
0.0416666 0.0416665 0
0 0.0416667 0
0 0 0
0.0416666 0.0416665 0
0.0416667 0 0
0.0416666 0.0416665 0
0.0416667 0 0
0.0833333 0.0416664 0
0.0833333 0 0
0.0416666 0.083333 0
0.0416666 0.0416665 0
0.0833333 0.0833327 0
0.0833333 0.0416664 0
0.0833331 0.291665 0
0.0833331 0.249998 0
0.125 0.291664 0
0.125 0.249998 0
0.125 0.291664 0
0.125 0.249998 0
0.166666 0.291663 0
0.166666 0.249997 0
0.125 0.33333 0
0.125 0.291664 0
0.166666 0.33333 0
0.166666 0.291663 0
0.0833331 0.333331 0
0.0833331 0.291665 0
0.125 0.33333 0
0.125 0.291664 0
0.666666 0.458327 0
0.624999 0.458326 0
0.666666 0.41666 0
0.624999 0.41666 0
0.666666 0.499993 0
0.624999 0.499993 0
0.666666 0.458327 0
0.624999 0.458326 0
0.624999 0.499993 0
0.583332 0.499992 0
0.624999 0.458326 0
0.583332 0.458326 0
0.624999 0.458326 0
0.583332 0.458326 0
0.624999 0.41666 0
0.583332 0.416659 0
0 0.208333 0
0 0.166667 0
0.0416666 0.208333 0
0.0416666 0.166666 0
0.0416666 0.208333 0
0.0416666 0.166666 0
0.0833331 0.208332 0
0.0833332 0.166666 0
0.708333 0.666661 0
0.749999 0.666662 0
0.708333 0.708328 0
0.749999 0.708329 0
0.708333 0.708328 0
0.749999 0.708329 0
0.708333 0.749996 0
0.749999 0.749996 0
0.666666 0.708328 0
0.708333 0.708328 0
0.666666 0.749995 0
0.708333 0.749996 0
0.666666 0.666661 0
0.708333 0.666661 0
0.666666 0.708328 0
0.708333 0.708328 0
0.416666 0.0833311 0
0.375 0.0833312 0
0.416667 0.0416656 0
0.375 0.0416656 0
0.375 0.0833312 0
0.333333 0.0833314 0
0.375 0.0416656 0
0.333333 0.0416657 0
0.375 0.0416656 0
0.333333 0.0416657 0
0.375 0 0
0.333333 0 0
0.416667 0.0416656 0
0.375 0.0416656 0
0.416667 0 0
0.375 0 0
0.458333 0.749994 0
0.499999 0.749994 0
0.458333 0.791662 0
0.499999 0.791662 0
0.666666 0.624994 0
0.708333 0.624994 0
0.666666 0.666661 0
0.708333 0.666661 0
0.666666 0.583327 0
0.708333 0.583327 0
0.666666 0.624994 0
0.708333 0.624994 0
0.708333 0.624994 0
0.749999 0.624995 0
0.708333 0.666661 0
0.749999 0.666662 0
0.625 0.0833312 0
0.583333 0.0833311 0
0.625 0.0416656 0
0.583333 0.0416656 0
0.625 0.0416656 0
0.583333 0.0416656 0
0.625 0 0
0.583333 0 0
0.374999 0.499993 0
0.333332 0.499993 0
0.374999 0.458326 0
0.333332 0.458326 0
0.416666 0.458326 0
0.374999 0.458326 0
0.416666 0.416659 0
0.374999 0.416659 0
0.416666 0.499992 0
0.374999 0.499993 0
0.416666 0.458326 0
0.374999 0.458326 0
0.624999 0.54166 0
0.624999 0.583326 0
0.583332 0.541659 0
0.583332 0.583326 0
0.624999 0.499993 0
0.624999 0.54166 0
0.583332 0.499992 0
0.583332 0.541659 0
0.666666 0.499993 0
0.666666 0.54166 0
0.624999 0.499993 0
0.624999 0.54166 0
0.666666 0.54166 0
0.666666 0.583327 0
0.624999 0.54166 0
0.624999 0.583326 0
0.5 0.124997 0
0.5 0.0833311 0
0.541666 0.124997 0
0.541666 0.0833311 0
0.541666 0.124997 0
0.541666 0.0833311 0
0.583333 0.124997 0
0.583333 0.0833311 0
0.666666 0.374994 0
0.666666 0.41666 0
0.624999 0.374993 0
0.624999 0.41666 0
0.624999 0.374993 0
0.624999 0.41666 0
0.583332 0.374993 0
0.583332 0.416659 0
0.416666 0.499992 0
0.416666 0.541659 0
0.374999 0.499993 0
0.374999 0.541659 0
0.416666 0.541659 0
0.416666 0.583326 0
0.374999 0.541659 0
0.374999 0.583326 0
0.374999 0.541659 0
0.374999 0.583326 0
0.333332 0.54166 0
0.333332 0.583326 0
0.374999 0.499993 0
0.374999 0.541659 0
0.333332 0.499993 0
0.333332 0.54166 0
0.416666 0.624993 0
0.416666 0.66666 0
0.374999 0.624993 0
0.374999 0.66666 0
0.374999 0.624993 0
0.374999 0.66666 0
0.333332 0.624994 0
0.333333 0.666661 0
0.374999 0.583326 0
0.374999 0.624993 0
0.333332 0.583326 0
0.333332 0.624994 0
0.416666 0.583326 0
0.416666 0.624993 0
0.374999 0.583326 0
0.374999 0.624993 0
0.666666 0.54166 0
0.708333 0.541661 0
0.666666 0.583327 0
0.708333 0.583327 0
0.666666 0.499993 0
0.708332 0.499994 0
0.666666 0.54166 0
0.708333 0.541661 0
0.416666 0.708327 0
0.416666 0.749994 0
0.374999 0.708328 0
0.374999 0.749995 0
0.416666 0.66666 0
0.416666 0.708327 0
0.374999 0.66666 0
0.374999 0.708328 0
0.666666 0.583327 0
0.666666 0.624994 0
0.624999 0.583326 0
0.624999 0.624993 0
0.666666 0.624994 0
0.666666 0.666661 0
0.624999 0.624993 0
0.624999 0.66666 0
0.624999 0.624993 0
0.624999 0.66666 0
0.583332 0.624993 0
0.583332 0.66666 0
0.624999 0.583326 0
0.624999 0.624993 0
0.583332 0.583326 0
0.583332 0.624993 0
0.499999 0.66666 0
0.541666 0.66666 0
0.499999 0.708327 0
0.541666 0.708327 0
0.541666 0.66666 0
0.583332 0.66666 0
0.541666 0.708327 0
0.583333 0.708327 0
0.541666 0.708327 0
0.583333 0.708327 0
0.541666 0.749994 0
0.583333 0.749995 0
0.499999 0.708327 0
0.541666 0.708327 0
0.499999 0.749994 0
0.541666 0.749994 0
0.416666 0.0833311 0
0.416667 0.0416656 0
0.458333 0.0833311 0
0.458333 0.0416655 0
0.416667 0.0416656 0
0.416667 0 0
0.458333 0.0416655 0
0.458333 0 0
0.458333 0.0416655 0
0.458333 0 0
0.5 0.0416655 0
0.5 0 0
0.458333 0.0833311 0
0.458333 0.0416655 0
0.5 0.0833311 0
0.5 0.0416655 0
0.499999 0.749994 0
0.541666 0.749994 0
0.499999 0.791662 0
0.541666 0.791662 0
0.541666 0.749994 0
0.583333 0.749995 0
0.541666 0.791662 0
0.583333 0.791662 0
0.208333 0.041666 0
0.166667 0.0416661 0
0.208333 0 0
0.166667 0 0
0.25 0.0416658 0
0.208333 0.041666 0
0.25 0 0
0.208333 0 0
0.333333 0.0833314 0
0.291666 0.0833315 0
0.333333 0.0416657 0
0.291667 0.0416658 0
0.291667 0.0416658 0
0.25 0.0416658 0
0.291667 0 0
0.25 0 0
0.333333 0.0416657 0
0.291667 0.0416658 0
[...]
POINT_DATA 50736
VECTORS velocity double
-0.0323964 0.0160529 0
-0.0121319 -0.000643832 0
-0.0578274 0.0340011 0
-0.0269613 0.0106659 0
-0.0551468 0.0431265 0
-0.0323964 0.0160529 0
-0.0906433 0.0681855 0
-0.0578274 0.0340011 0
-0.0270791 0.0187122 0
-0.0141181 -0.00061511 0
-0.0551468 0.0431265 0
-0.0323964 0.0160529 0
-0.0141181 -0.00061511 0
-0.00409633 -0.0105789 0
-0.0323964 0.0160529 0
-0.0121319 -0.000643832 0
-0.0273944 0.0767513 0
-0.0313288 0.0333864 0
0.0146156 0.0802127 0
0.0109314 0.0376317 0
-0.0240067 0.120655 0
-0.0273944 0.0767513 0
0.0175343 0.12357 0
0.0146156 0.0802127 0
-0.0650339 0.117343 0
-0.0686415 0.0730059 0
-0.0240067 0.120655 0
-0.0273944 0.0767513 0
-0.0686415 0.0730059 0
-0.0726746 0.0290977 0
-0.0273944 0.0767513 0
-0.0313288 0.0333864 0
0.0497912 0.000547461 0
0.043473 -0.0408833 0
0.09535 0.00607209 0
0.0887192 -0.0333548 0
0.0544659 0.0417069 0
0.0497912 0.000547461 0
0.0998553 0.0454771 0
0.09535 0.00607209 0
0.0109314 0.0376317 0
0.00621357 -0.00487024 0
0.0544659 0.0417069 0
0.0497912 0.000547461 0
0.00621357 -0.00487024 0
0.000281707 -0.0478046 0
0.0497912 0.000547461 0
0.043473 -0.0408833 0
-0.0313288 0.0333864 0
-0.0359808 -0.0100848 0
0.0109314 0.0376317 0
0.00621357 -0.00487024 0
-0.0726746 0.0290977 0
-0.0771454 -0.0149972 0
-0.0313288 0.0333864 0
-0.0359808 -0.0100848 0
-0.0771454 -0.0149972 0
-0.0820661 -0.0595985 0
-0.0359808 -0.0100848 0
-0.0414461 -0.0540658 0
-0.0359808 -0.0100848 0
-0.0414461 -0.0540658 0
0.00621357 -0.00487024 0
0.000281707 -0.0478046 0
-0.11331 0.0249322 0
-0.153684 0.0211753 0
-0.117447 -0.0194832 0
-0.157235 -0.0233937 0
-0.117447 -0.0194832 0
-0.157235 -0.0233937 0
-0.121706 -0.0643169 0
-0.160874 -0.0681885 0
-0.0771454 -0.0149972 0
-0.117447 -0.0194832 0
-0.0820661 -0.0595985 0
-0.121706 -0.0643169 0
-0.0726746 0.0290977 0
-0.11331 0.0249322 0
-0.0771454 -0.0149972 0
-0.117447 -0.0194832 0
-0.166586 0.135702 0
-0.119168 0.110574 0
-0.132175 0.0898347 0
-0.0906433 0.0681855 0
-0.186437 0.184331 0
-0.138263 0.157085 0
-0.166586 0.135702 0
-0.119168 0.110574 0
-0.195234 0.0181881 0
-0.198087 -0.0266072 0
-0.153684 0.0211753 0
-0.157235 -0.0233937 0
-0.240141 0.0157153 0
-0.242618 -0.02977 0
-0.195234 0.0181881 0
-0.198087 -0.0266072 0
-0.242618 -0.02977 0
-0.245751 -0.0752809 0
-0.198087 -0.0266072 0
-0.201143 -0.0718577 0
-0.198087 -0.0266072 0
-0.201143 -0.0718577 0
-0.157235 -0.0233937 0
-0.160874 -0.0681885 0
-0.0686415 0.0730059 0
-0.109434 0.0692224 0
-0.0726746 0.0290977 0
-0.11331 0.0249322 0
-0.0650339 0.117343 0
-0.105957 0.114013 0
-0.0686415 0.0730059 0
-0.109434 0.0692224 0
-0.105957 0.114013 0
-0.147538 0.111118 0
-0.109434 0.0692224 0
-0.150368 0.0657726 0
-0.109434 0.0692224 0
-0.150368 0.0657726 0
-0.11331 0.0249322 0
-0.153684 0.0211753 0
-0.0764499 0.0793648 0
-0.0551468 0.0431265 0
-0.119168 0.110574 0
-0.0906433 0.0681855 0
-0.0919803 0.121777 0
-0.0764499 0.0793648 0
-0.138263 0.157085 0
-0.119168 0.110574 0
-0.0505708 0.0828058 0
-0.0399228 0.0469858 0
-0.0919803 0.121777 0
-0.0764499 0.0793648 0
-0.0399228 0.0469858 0
-0.0270791 0.0187122 0
-0.0764499 0.0793648 0
-0.0551468 0.0431265 0
0.0175343 0.12357 0
0.0146156 0.0802127 0
0.0599999 0.125834 0
0.0577578 0.0832162 0
0.0146156 0.0802127 0
0.0109314 0.0376317 0
0.0577578 0.0832162 0
0.0544659 0.0417069 0
0.0577578 0.0832162 0
0.0544659 0.0417069 0
0.102568 0.0855793 0
0.0998553 0.0454771 0
0.0599999 0.125834 0
0.0577578 0.0832162 0
0.10385 0.127154 0
0.102568 0.0855793 0
0.14957 0.0870104 0
0.147727 0.0487784 0
0.198522 0.0870506 0
0.198236 0.0512768 0
0.149424 0.127075 0
0.14957 0.0870104 0
0.196215 0.124694 0
0.198522 0.0870506 0
0.10385 0.127154 0
0.102568 0.0855793 0
0.149424 0.127075 0
0.14957 0.0870104 0
0.102568 0.0855793 0
0.0998553 0.0454771 0
0.14957 0.0870104 0
0.147727 0.0487784 0
-0.238553 0.0610743 0
-0.240141 0.0157153 0
-0.192934 0.0632093 0
-0.195234 0.0181881 0
-0.192934 0.0632093 0
-0.195234 0.0181881 0
-0.150368 0.0657726 0
-0.153684 0.0211753 0
-0.190811 0.108658 0
-0.192934 0.0632093 0
-0.147538 0.111118 0
-0.150368 0.0657726 0
-0.190811 0.108658 0
-0.147538 0.111118 0
-0.189253 0.155344 0
-0.145238 0.157441 0
0.0797026 -0.073415 0
0.126743 -0.0624233 0
0.0887192 -0.0333548 0
0.136694 -0.0252471 0
0.068108 -0.114547 0
0.113348 -0.100419 0
0.0797026 -0.073415 0
0.126743 -0.0624233 0
0.113348 -0.100419 0
0.161463 -0.0838435 0
0.126743 -0.0624233 0
0.176828 -0.0500277 0
0.126743 -0.0624233 0
0.176828 -0.0500277 0
0.136694 -0.0252471 0
0.18775 -0.0165773 0
-0.00326425 -0.00944806 0
-0.000304257 -0.0135756 0
-0.0141181 -0.00061511 0
-0.00409633 -0.0105789 0
-0.00744569 0.00139844 0
-0.00326425 -0.00944806 0
-0.0270791 0.0187122 0
-0.0141181 -0.00061511 0
0 0 0
0 0 0
-0.00744569 0.00139844 0
-0.00326425 -0.00944806 0
0 0 0
0 0 0
-0.00326425 -0.00944806 0
-0.000304257 -0.0135756 0
-0.0987706 -0.00909993 0
0 0 0
-0.0862613 -0.0150117 0
0 0 0
-0.187639 -0.0197393 0
-0.0987706 -0.00909993 0
-0.170365 -0.034562 0
-0.0862613 -0.0150117 0
-0.194837 -0.00293204 0
-0.103851 -0.00127046 0
-0.187639 -0.0197393 0
-0.0987706 -0.00909993 0
-0.103851 -0.00127046 0
0 0 0
-0.0987706 -0.00909993 0
0 0 0
0 0 0
0 0 0
-0.000304257 -0.0135756 0
-0.00121154 -0.0147596 0
0 0 0
0 0 0
-0.00121154 -0.0147596 0
0 0 0
-0.00121154 -0.0147596 0
0 0 0
0.00110374 -0.0133061 0
0 0 0
-0.000304257 -0.0135756 0
-0.00121154 -0.0147596 0
-0.00409633 -0.0105789 0
0.00110374 -0.0133061 0
-0.0562977 0.123018 0
-0.0505708 0.0828058 0
-0.0992614 0.166542 0
-0.0919803 0.121777 0
-0.0992614 0.166542 0
-0.0919803 0.121777 0
-0.145545 0.20424 0
-0.138263 0.157085 0
-0.0972015 0.210454 0
-0.0992614 0.166542 0
-0.139814 0.248333 0
-0.145545 0.20424 0
-0.0554823 0.163789 0
-0.0562977 0.123018 0
-0.0972015 0.210454 0
-0.0992614 0.166542 0
-0.130018 -0.15519 0
-0.126016 -0.109596 0
-0.168279 -0.159375 0
-0.164538 -0.113418 0
-0.0927088 -0.150665 0
-0.0873101 -0.104823 0
-0.130018 -0.15519 0
-0.126016 -0.109596 0
-0.0873101 -0.104823 0
-0.0820661 -0.0595985 0
-0.126016 -0.109596 0
-0.121706 -0.0643169 0
-0.126016 -0.109596 0
-0.121706 -0.0643169 0
-0.164538 -0.113418 0
-0.160874 -0.0681885 0
0 0 0
0 0 0
-0.0115914 0.0196012 0
-0.00744569 0.00139844 0
-0.0115914 0.0196012 0
-0.00744569 0.00139844 0
-0.0399228 0.0469858 0
-0.0270791 0.0187122 0
0.0538323 -0.156798 0
0.0367965 -0.199865 0
0.0961781 -0.139362 0
0.0749593 -0.179379 0
0.0961781 -0.139362 0
0.0749593 -0.179379 0
0.141109 -0.118258 0
0.115306 -0.153789 0
0.113348 -0.100419 0
0.0961781 -0.139362 0
0.161463 -0.0838435 0
0.141109 -0.118258 0
0.068108 -0.114547 0
0.0538323 -0.156798 0
0.113348 -0.100419 0
0.0961781 -0.139362 0
-0.179404 0.0271132 0
-0.158891 0.0352758 0
-0.090603 0.0124319 0
-0.0758746 0.0156194 0
-0.158891 0.0352758 0
-0.131942 0.038643 0
-0.0758746 0.0156194 0
-0.0592361 0.0157971 0
-0.0758746 0.0156194 0
-0.0592361 0.0157971 0
0 0 0
0 0 0
-0.090603 0.0124319 0
-0.0758746 0.0156194 0
0 0 0
0 0 0
0.198522 0.0870506 0
0.198236 0.0512768 0
0.24856 0.0845455 0
0.250546 0.0523525 0
0.0254231 -0.126466 0
0.0137426 -0.170929 0
0.068108 -0.114547 0
0.0538323 -0.156798 0
-0.0153071 -0.13638 0
-0.0245784 -0.181943 0
0.0254231 -0.126466 0
0.0137426 -0.170929 0
0.0137426 -0.170929 0
0.000520442 -0.215865 0
0.0538323 -0.156798 0
0.0367965 -0.199865 0
-0.143248 -0.0433543 0
-0.170365 -0.034562 0
-0.0675637 -0.0170966 0
-0.0862613 -0.0150117 0
-0.0675637 -0.0170966 0
-0.0862613 -0.0150117 0
0 0 0
0 0 0
-0.0618037 0.163125 0
-0.0590434 0.210873 0
-0.103089 0.160026 0
-0.100086 0.207768 0
-0.105957 0.114013 0
-0.103089 0.160026 0
-0.147538 0.111118 0
-0.145238 0.157441 0
-0.0650339 0.117343 0
-0.0618037 0.163125 0
-0.105957 0.114013 0
-0.103089 0.160026 0
-0.0477009 -0.0988276 0
-0.00692185 -0.0915738 0
-0.0414461 -0.0540658 0
0.000281707 -0.0478046 0
-0.0873101 -0.104823 0
-0.0477009 -0.0988276 0
-0.0820661 -0.0595985 0
-0.0414461 -0.0540658 0
-0.0927088 -0.150665 0
-0.0545674 -0.144383 0
-0.0873101 -0.104823 0
-0.0477009 -0.0988276 0
-0.0545674 -0.144383 0
-0.0153071 -0.13638 0
-0.0477009 -0.0988276 0
-0.00692185 -0.0915738 0
-0.282106 -0.00390978 0
-0.194837 -0.00293204 0
-0.277783 -0.0320306 0
-0.187639 -0.0197393 0
-0.277783 -0.0320306 0
-0.187639 -0.0197393 0
-0.261702 -0.0570534 0
-0.170365 -0.034562 0
-0.209951 -0.164471 0
-0.168279 -0.159375 0
-0.205117 -0.117515 0
-0.164538 -0.113418 0
-0.205117 -0.117515 0
-0.164538 -0.113418 0
-0.201143 -0.0718577 0
-0.160874 -0.0681885 0
-0.0650339 0.117343 0
-0.0240067 0.120655 0
-0.0618037 0.163125 0
-0.0210166 0.166072 0
-0.0240067 0.120655 0
0.0175343 0.12357 0
-0.0210166 0.166072 0
0.0199552 0.168612 0
-0.0210166 0.166072 0
0.0199552 0.168612 0
-0.0185018 0.213577 0
0.0218276 0.215899 0
-0.0618037 0.163125 0
-0.0210166 0.166072 0
-0.0590434 0.210873 0
-0.0185018 0.213577 0
0.0599999 0.125834 0
0.10385 0.127154 0
0.061553 0.170377 0
0.104024 0.170981 0
0.061553 0.170377 0
0.104024 0.170981 0
0.0623218 0.217252 0
0.102945 0.216922 0
0.0199552 0.168612 0
0.061553 0.170377 0
0.0218276 0.215899 0
0.0623218 0.217252 0
0.0175343 0.12357 0
0.0599999 0.125834 0
0.0199552 0.168612 0
0.061553 0.170377 0
-0.0545674 -0.144383 0
-0.0616761 -0.190362 0
-0.0153071 -0.13638 0
-0.0245784 -0.181943 0
-0.0927088 -0.150665 0
-0.0979498 -0.196672 0
-0.0545674 -0.144383 0
-0.0616761 -0.190362 0
0.149424 0.127075 0
0.196215 0.124694 0
0.147201 0.169348 0
0.190953 0.164751 0
0.10385 0.127154 0
0.149424 0.127075 0
0.104024 0.170981 0
0.147201 0.169348 0
-0.0153071 -0.13638 0
0.0254231 -0.126466 0
-0.00692185 -0.0915738 0
0.0353627 -0.0831107 0
0.0254231 -0.126466 0
0.068108 -0.114547 0
0.0353627 -0.0831107 0
0.0797026 -0.073415 0
0.0353627 -0.0831107 0
0.0797026 -0.073415 0
0.043473 -0.0408833 0
0.0887192 -0.0333548 0
-0.00692185 -0.0915738 0
0.0353627 -0.0831107 0
0.000281707 -0.0478046 0
0.043473 -0.0408833 0
0.0998553 0.0454771 0
0.09535 0.00607209 0
0.147727 0.0487784 0
0.143562 0.0115999 0
0.09535 0.00607209 0
0.0887192 -0.0333548 0
0.143562 0.0115999 0
0.136694 -0.0252471 0
0.143562 0.0115999 0
0.136694 -0.0252471 0
0.194725 0.0169803 0
0.18775 -0.0165773 0
0.147727 0.0487784 0
0.143562 0.0115999 0
0.198236 0.0512768 0
0.194725 0.0169803 0
-0.179404 0.0271132 0
-0.090603 0.0124319 0
-0.191886 0.0139793 0
-0.100768 0.00635104 0
-0.090603 0.0124319 0
0 0 0
-0.100768 0.00635104 0
0 0 0
-0.100768 0.00635104 0
0 0 0
-0.103851 -0.00127046 0
0 0 0
-0.191886 0.0139793 0
-0.100768 0.00635104 0
-0.194837 -0.00293204 0
-0.103851 -0.00127046 0
0.198236 0.0512768 0
0.194725 0.0169803 0
0.250546 0.0523525 0
0.248077 0.0218535 0
0.194725 0.0169803 0
0.18775 -0.0165773 0
0.248077 0.0218535 0
0.241218 -0.00749365 0
-0.0145529 0.00373131 0
-0.00526581 -0.00194426 0
0 0 0
0 0 0
-0.02711 0.00903081 0
-0.0145529 0.00373131 0
0 0 0
0 0 0
-0.131942 0.038643 0
-0.102442 0.0363094 0
-0.0592361 0.0157971 0
-0.0418957 0.013019 0
-0.0418957 0.013019 0
-0.02711 0.00903081 0
0 0 0
0 0 0
-0.0592361 0.0157971 0
-0.0418957 0.013019 0
0 0 0
0 0 0
0.176828 -0.0500277 0
0.229362 -0.0362121 0
0.18775 -0.0165773 0
0.241218 -0.00749365 0
0.161463 -0.0838435 0
0.211956 -0.0647369 0
0.176828 -0.0500277 0
0.229362 -0.0362121 0
-0.220962 0.111896 0
-0.176421 0.105413 0
-0.166204 0.0703722 0
-0.127108 0.0633065 0
-0.166204 0.0703722 0
-0.127108 0.0633065 0
-0.102442 0.0363094 0
-0.0737 0.030156 0
-0.20289 0.0706699 0
-0.166204 0.0703722 0
-0.131942 0.038643 0
-0.102442 0.0363094 0
-0.234951 0.0623841 0
-0.20289 0.0706699 0
-0.158891 0.0352758 0
-0.131942 0.038643 0
-0.275782 0.0222142 0
-0.191886 0.0139793 0
-0.282106 -0.00390978 0
-0.194837 -0.00293204 0
-0.00409633 -0.0105789 0
0.00110374 -0.0133061 0
-0.0121319 -0.000643832 0
0.000209797 -0.00810402 0
0.00110374 -0.0133061 0
0 0 0
0.000209797 -0.00810402 0
0 0 0
0.000209797 -0.00810402 0
0 0 0
-0.00526581 -0.00194426 0
0 0 0
0.161463 -0.0838435 0
0.141109 -0.118258 0
0.211956 -0.0647369 0
0.188392 -0.0932859 0
0.141109 -0.118258 0
0.115306 -0.153789 0
0.188392 -0.0932859 0
0.158183 -0.123072 0
-0.0900249 0.0504268 0
-0.0578274 0.0340011 0
-0.0477231 0.0210503 0
-0.0269613 0.0106659 0
-0.127108 0.0633065 0
-0.0900249 0.0504268 0
-0.0737 0.030156 0
-0.0477231 0.0210503 0
-0.176421 0.105413 0
-0.132175 0.0898347 0
-0.127108 0.0633065 0
-0.0900249 0.0504268 0
-0.132175 0.0898347 0
-0.0906433 0.0681855 0
-0.0900249 0.0504268 0
-0.0578274 0.0340011 0
-0.213404 0.15136 0
-0.189772 0.145011 0
-0.197034 0.128163 0
-0.17375 0.121256 0
-0.189772 0.145011 0
-0.166586 0.135702 0
-0.17375 0.121256 0
-0.149381 0.112768 0
-0.197034 0.128163 0
-0.17375 0.121256 0
-0.176421 0.105413 0
-0.154298 0.0976238 0
-0.17375 0.121256 0
-0.149381 0.112768 0
-0.154298 0.0976238 0
-0.132175 0.0898347 0
-0.230524 0.19578 0
-0.208781 0.191904 0
-0.224621 0.174153 0
-0.201712 0.168758 0
-0.208781 0.191904 0
-0.186437 0.184331 0
-0.201712 0.168758 0
-0.176511 0.160017 0
-0.224621 0.174153 0
-0.201712 0.168758 0
-0.213404 0.15136 0
-0.189772 0.145011 0
-0.201712 0.168758 0
-0.176511 0.160017 0
-0.189772 0.145011 0
-0.166586 0.135702 0
-0.231117 -0.136235 0
-0.188602 -0.108267 0
-0.201549 -0.131722 0
-0.160817 -0.102223 0
-0.188602 -0.108267 0
-0.14683 -0.0822512 0
-0.160817 -0.102223 0
-0.122171 -0.0758095 0
-0.201549 -0.131722 0
-0.160817 -0.102223 0
-0.170356 -0.122245 0
-0.132682 -0.0924078 0
-0.160817 -0.102223 0
-0.122171 -0.0758095 0
-0.132682 -0.0924078 0
-0.0980363 -0.0666444 0
-0.28146 -0.130505 0
-0.239044 -0.108155 0
-0.25799 -0.13572 0
-0.214965 -0.110236 0
-0.239044 -0.108155 0
-0.194018 -0.0856406 0
-0.214965 -0.110236 0
-0.171072 -0.0855796 0
-0.25799 -0.13572 0
-0.214965 -0.110236 0
-0.231117 -0.136235 0
-0.188602 -0.108267 0
-0.214965 -0.110236 0
-0.171072 -0.0855796 0
-0.188602 -0.108267 0
-0.14683 -0.0822512 0
-0.194018 -0.0856406 0
-0.15015 -0.0644546 0
-0.171072 -0.0855796 0
-0.129437 -0.0631111 0
-0.15015 -0.0644546 0
-0.110045 -0.0454152 0
-0.129437 -0.0631111 0
-0.0921692 -0.0435908 0
-0.171072 -0.0855796 0
-0.129437 -0.0631111 0
-0.14683 -0.0822512 0
-0.108246 -0.0593228 0
-0.129437 -0.0631111 0
-0.0921692 -0.0435908 0
-0.108246 -0.0593228 0
-0.074398 -0.0399745 0
-0.14683 -0.0822512 0
-0.108246 -0.0593228 0
-0.122171 -0.0758095 0
-0.0873361 -0.0532672 0
-0.108246 -0.0593228 0
-0.074398 -0.0399745 0
-0.0873361 -0.0532672 0
-0.0573661 -0.0348007 0
-0.122171 -0.0758095 0
-0.0873361 -0.0532672 0
-0.0980363 -0.0666444 0
-0.0674848 -0.045346 0
-0.0873361 -0.0532672 0
-0.0573661 -0.0348007 0
-0.0674848 -0.045346 0
-0.0416698 -0.0284148 0
-0.290679 0.0138538 0
-0.316328 0.0125347 0
-0.291951 -0.00935571 0
-0.317916 -0.0109086 0
-0.316328 0.0125347 0
-0.339589 0.0107264 0
-0.317916 -0.0109086 0
-0.341595 -0.0127465 0
-0.291951 -0.00935571 0
-0.317916 -0.0109086 0
-0.293519 -0.0327275 0
-0.319709 -0.0345823 0
-0.317916 -0.0109086 0
-0.341595 -0.0127465 0
-0.319709 -0.0345823 0
-0.343533 -0.0365415 0
-0.293519 -0.0327275 0
-0.319709 -0.0345823 0
-0.295505 -0.0563258 0
-0.321759 -0.0585555 0
-0.319709 -0.0345823 0
-0.343533 -0.0365415 0
-0.321759 -0.0585555 0
-0.345448 -0.0606564 0
-0.295505 -0.0563258 0
-0.321759 -0.0585555 0
-0.2979 -0.0802925 0
-0.324097 -0.082882 0
-0.321759 -0.0585555 0
-0.345448 -0.0606564 0
-0.324097 -0.082882 0
-0.347304 -0.0850922 0
-0.242618 -0.02977 0
-0.267387 -0.0310018 0
-0.244184 -0.0525255 0
-0.26907 -0.0542528 0
-0.267387 -0.0310018 0
-0.293519 -0.0327275 0
-0.26907 -0.0542528 0
-0.295505 -0.0563258 0
-0.244184 -0.0525255 0
-0.26907 -0.0542528 0
-0.245751 -0.0752809 0
-0.271414 -0.0776488 0
-0.26907 -0.0542528 0
-0.295505 -0.0563258 0
-0.271414 -0.0776488 0
-0.2979 -0.0802925 0
-0.240141 0.0157153 0
-0.26494 0.0149454 0
-0.24138 -0.00702739 0
-0.265958 -0.00808211 0
-0.26494 0.0149454 0
-0.290679 0.0138538 0
-0.265958 -0.00808211 0
-0.291951 -0.00935571 0
-0.24138 -0.00702739 0
-0.265958 -0.00808211 0
-0.242618 -0.02977 0
-0.267387 -0.0310018 0
-0.265958 -0.00808211 0
-0.291951 -0.00935571 0
-0.267387 -0.0310018 0
-0.293519 -0.0327275 0
-0.0924227 0.301447 0
-0.0885752 0.318432 0
-0.112608 0.297805 0
-0.107868 0.313464 0
-0.0885752 0.318432 0
-0.0834535 0.330126 0
-0.107868 0.313464 0
-0.101543 0.323647 0
-0.112608 0.297805 0
-0.107868 0.313464 0
-0.13271 0.293326 0
-0.126865 0.307347 0
-0.107868 0.313464 0
-0.101543 0.323647 0
-0.126865 0.307347 0
-0.119138 0.315726 0
-0.0524201 0.306866 0
-0.0499538 0.325604 0
-0.0723256 0.30443 0
-0.0692189 0.322434 0
-0.0499538 0.325604 0
-0.0468109 0.339401 0
-0.0692189 0.322434 0
-0.0651425 0.335333 0
-0.0723256 0.30443 0
-0.0692189 0.322434 0
-0.0924227 0.301447 0
-0.0885752 0.318432 0
-0.0692189 0.322434 0
-0.0651425 0.335333 0
-0.0885752 0.318432 0
-0.0834535 0.330126 0
-0.0468109 0.339401 0
-0.0428613 0.34696 0
-0.0651425 0.335333 0
-0.0599571 0.341895 0
-0.0428613 0.34696 0
-0.0380411 0.347431 0
-0.0599571 0.341895 0
-0.0536211 0.341359 0
-0.0651425 0.335333 0
-0.0599571 0.341895 0
-0.0834535 0.330126 0
-0.0769214 0.335397 0
-0.0599571 0.341895 0
-0.0536211 0.341359 0
-0.0769214 0.335397 0
-0.068976 0.333607 0
-0.0834535 0.330126 0
-0.0769214 0.335397 0
-0.101543 0.323647 0
-0.0935213 0.32735 0
-0.0769214 0.335397 0
-0.068976 0.333607 0
-0.0935213 0.32735 0
-0.0838589 0.324091 0
-0.101543 0.323647 0
-0.0935213 0.32735 0
-0.119138 0.315726 0
-0.109463 0.317618 0
-0.0935213 0.32735 0
-0.0838589 0.324091 0
-0.109463 0.317618 0
-0.0979765 0.312726 0
-0.1348 -0.2018 0
-0.1539 -0.204482 0
-0.137646 -0.226049 0
-0.157145 -0.229469 0
-0.1539 -0.204482 0
-0.17397 -0.207579 0
-0.157145 -0.229469 0
-0.177965 -0.233619 0
-0.137646 -0.226049 0
-0.157145 -0.229469 0
-0.141322 -0.251828 0
-0.161534 -0.256504 0
-0.157145 -0.229469 0
-0.177965 -0.233619 0
-0.161534 -0.256504 0
-0.183245 -0.262101 0
-0.0979498 -0.196672 0
-0.116299 -0.199182 0
-0.100991 -0.220119 0
-0.119036 -0.223044 0
-0.116299 -0.199182 0
-0.1348 -0.2018 0
-0.119036 -0.223044 0
-0.137646 -0.226049 0
-0.100991 -0.220119 0
-0.119036 -0.223044 0
-0.104181 -0.244254 0
-0.122325 -0.247849 0
-0.119036 -0.223044 0
-0.137646 -0.226049 0
-0.122325 -0.247849 0
-0.141322 -0.251828 0
-0.0927088 -0.150665 0
-0.111364 -0.152928 0
-0.0953293 -0.173669 0
-0.113766 -0.176029 0
-0.111364 -0.152928 0
-0.130018 -0.15519 0
-0.113766 -0.176029 0
-0.13244 -0.178368 0
-0.0953293 -0.173669 0
-0.113766 -0.176029 0
-0.0979498 -0.196672 0
-0.116299 -0.199182 0
-0.113766 -0.176029 0
-0.13244 -0.178368 0
-0.116299 -0.199182 0
-0.1348 -0.2018 0
-0.130018 -0.15519 0
-0.149148 -0.157283 0
-0.13244 -0.178368 0
-0.151281 -0.18061 0
-0.149148 -0.157283 0
-0.168279 -0.159375 0
-0.151281 -0.18061 0
-0.171006 -0.183149 0
-0.13244 -0.178368 0
-0.151281 -0.18061 0
-0.1348 -0.2018 0
-0.1539 -0.204482 0
-0.151281 -0.18061 0
-0.171006 -0.183149 0
-0.1539 -0.204482 0
-0.17397 -0.207579 0
0 0 0
0 0 0
-0.00307325 0.0335411 0
-0.00083385 0.0302866 0
0 0 0
0 0 0
-0.00083385 0.0302866 0
0.000486815 0.0303601 0
-0.00307325 0.0335411 0
-0.00083385 0.0302866 0
-0.00840096 0.0661607 0
-0.00131145 0.063959 0
-0.00083385 0.0302866 0
0.000486815 0.0303601 0
-0.00131145 0.063959 0
0.00304688 0.0664372 0
-0.237614 0.107597 0
-0.23793 0.0843624 0
-0.213862 0.10814 0
-0.214589 0.0849186 0
-0.23793 0.0843624 0
-0.238553 0.0610743 0
-0.214589 0.0849186 0
-0.215743 0.0621418 0
-0.213862 0.10814 0
-0.214589 0.0849186 0
-0.190811 0.108658 0
-0.191873 0.0859338 0
-0.214589 0.0849186 0
-0.215743 0.0621418 0
-0.191873 0.0859338 0
-0.192934 0.0632093 0
-0.0493677 0.309188 0
-0.0603758 0.297365 0
-0.0597262 0.324669 0
-0.0727254 0.313857 0
-0.0603758 0.297365 0
-0.070558 0.283532 0
-0.0727254 0.313857 0
-0.0849055 0.301076 0
-0.0597262 0.324669 0
-0.0727254 0.313857 0
-0.068976 0.333607 0
-0.0838589 0.324091 0
-0.0727254 0.313857 0
-0.0849055 0.301076 0
-0.0838589 0.324091 0
-0.0979765 0.312726 0
-0.0258909 0.326788 0
-0.0377942 0.318992 0
-0.0323572 0.340566 0
-0.0461882 0.333555 0
-0.0377942 0.318992 0
-0.0493677 0.309188 0
-0.0461882 0.333555 0
-0.0597262 0.324669 0
-0.0323572 0.340566 0
-0.0461882 0.333555 0
-0.0380411 0.347431 0
-0.0536211 0.341359 0
-0.0461882 0.333555 0
-0.0597262 0.324669 0
-0.0536211 0.341359 0
-0.068976 0.333607 0
-0.0117398 0.2807 0