# vtk DataFile Version 3.0
#This file was generated by the deal.II library on 2020/12/25 at 19:39:08
ASCII
DATASET UNSTRUCTURED_GRID

POINTS 7752 double
0.458332 0.541659 0
0.499999 0.541659 0
0.458332 0.583326 0
0.499999 0.583326 0
0.416666 0.541659 0
0.458332 0.541659 0
0.416666 0.583326 0
0.458332 0.583326 0
0.416666 0.499992 0
0.458332 0.499992 0
0.416666 0.541659 0
0.458332 0.541659 0
0.458332 0.499992 0
0.499999 0.499992 0
0.458332 0.541659 0
0.499999 0.541659 0
0.541666 0.624993 0
0.583332 0.624993 0
0.541666 0.66666 0
0.583332 0.66666 0
0.499999 0.624993 0
0.541666 0.624993 0
0.499999 0.66666 0
0.541666 0.66666 0
0.499999 0.583326 0
0.541666 0.583326 0
0.499999 0.624993 0
0.541666 0.624993 0
0.541666 0.583326 0
0.583332 0.583326 0
0.541666 0.624993 0
0.583332 0.624993 0
0.499999 0.541659 0
0.541666 0.541659 0
0.499999 0.583326 0
0.541666 0.583326 0
0.499999 0.499992 0
0.541666 0.499992 0
0.499999 0.541659 0
0.541666 0.541659 0
0.541666 0.499992 0
0.583332 0.499992 0
0.541666 0.541659 0
0.583332 0.541659 0
0.541666 0.541659 0
0.583332 0.541659 0
0.541666 0.583326 0
0.583332 0.583326 0
0.499999 0.458326 0
0.499999 0.416659 0
0.541666 0.458326 0
0.541666 0.416659 0
0.541666 0.458326 0
0.541666 0.416659 0
0.583332 0.458326 0
0.583332 0.416659 0
0.541666 0.499992 0
0.541666 0.458326 0
0.583332 0.499992 0
0.583332 0.458326 0
0.499999 0.499992 0
0.499999 0.458326 0
0.541666 0.499992 0
0.541666 0.458326 0
0.499999 0.374993 0
0.541666 0.374993 0
0.499999 0.416659 0
0.541666 0.416659 0
0.499999 0.333326 0
0.541666 0.333326 0
0.499999 0.374993 0
0.541666 0.374993 0
0.541666 0.333326 0
0.583332 0.333327 0
0.541666 0.374993 0
0.583332 0.374993 0
0.541666 0.374993 0
0.583332 0.374993 0
0.541666 0.416659 0
0.583332 0.416659 0
0.458332 0.499992 0
0.458332 0.458326 0
0.499999 0.499992 0
0.499999 0.458326 0
0.416666 0.499992 0
0.416666 0.458326 0
0.458332 0.499992 0
0.458332 0.458326 0
0.416666 0.458326 0
0.416666 0.416659 0
0.458332 0.458326 0
0.458332 0.416659 0
0.458332 0.458326 0
0.458332 0.416659 0
0.499999 0.458326 0
0.499999 0.416659 0
0.541666 0.333326 0
0.541666 0.29166 0
0.583332 0.333327 0
0.583333 0.29166 0
0.499999 0.333326 0
0.499999 0.29166 0
0.541666 0.333326 0
0.541666 0.29166 0
0.708333 0.458327 0
0.708333 0.41666 0
0.749999 0.458328 0
0.749999 0.416661 0
0.708332 0.499994 0
0.708333 0.458327 0
0.749999 0.499994 0
0.749999 0.458328 0
0.666666 0.499993 0
0.666666 0.458327 0
0.708332 0.499994 0
0.708333 0.458327 0
0.666666 0.458327 0
0.666666 0.41666 0
0.708333 0.458327 0
0.708333 0.41666 0
0.416666 0.583326 0
0.458332 0.583326 0
0.416666 0.624993 0
0.458332 0.624993 0
0.458332 0.583326 0
0.499999 0.583326 0
0.458332 0.624993 0
0.499999 0.624993 0
0.458332 0.624993 0
0.499999 0.624993 0
0.458332 0.66666 0
0.499999 0.66666 0
0.416666 0.624993 0
0.458332 0.624993 0
0.416666 0.66666 0
0.458332 0.66666 0
0.458333 0.708327 0
0.499999 0.708327 0
0.458333 0.749994 0
0.499999 0.749994 0
0.416666 0.708327 0
0.458333 0.708327 0
0.416666 0.749994 0
0.458333 0.749994 0
0.416666 0.66666 0
0.458332 0.66666 0
0.416666 0.708327 0
0.458333 0.708327 0
0.458332 0.66666 0
0.499999 0.66666 0
0.458333 0.708327 0
0.499999 0.708327 0
0.458332 0.333326 0
0.499999 0.333326 0
0.458332 0.374993 0
0.499999 0.374993 0
0.458332 0.374993 0
0.499999 0.374993 0
0.458332 0.416659 0
0.499999 0.416659 0
0.416666 0.374993 0
0.458332 0.374993 0
0.416666 0.416659 0
0.458332 0.416659 0
0.333332 0.583326 0
0.333332 0.624994 0
0.291666 0.583327 0
0.291666 0.624994 0
0.333332 0.624994 0
0.333333 0.666661 0
0.291666 0.624994 0
0.291666 0.666661 0
0.624999 0.66666 0
0.624999 0.708328 0
0.583332 0.66666 0
0.583333 0.708327 0
0.666666 0.666661 0
0.666666 0.708328 0
0.624999 0.66666 0
0.624999 0.708328 0
0.666666 0.708328 0
0.666666 0.749995 0
0.624999 0.708328 0
0.624999 0.749995 0
0.624999 0.708328 0
0.624999 0.749995 0
0.583333 0.708327 0
0.583333 0.749995 0
0.5 0.0833311 0
0.5 0.0416655 0
0.541666 0.0833311 0
0.541667 0.0416655 0
0.5 0.0416655 0
0.5 0 0
0.541667 0.0416655 0
0.541667 0 0
0.666666 0.374994 0
0.708333 0.374994 0
0.666666 0.41666 0
0.708333 0.41666 0
0.791666 0.70833 0
0.791666 0.749997 0
0.749999 0.708329 0
0.749999 0.749996 0
0.791666 0.666663 0
0.791666 0.70833 0
0.749999 0.666662 0
0.749999 0.708329 0
0.666666 0.458327 0
0.624999 0.458326 0
0.666666 0.41666 0
0.624999 0.41666 0
0.666666 0.499993 0
0.624999 0.499993 0
0.666666 0.458327 0
0.624999 0.458326 0
0.624999 0.499993 0
0.583332 0.499992 0
0.624999 0.458326 0
0.583332 0.458326 0
0.624999 0.458326 0
0.583332 0.458326 0
0.624999 0.41666 0
0.583332 0.416659 0
0.708333 0.666661 0
0.749999 0.666662 0
0.708333 0.708328 0
0.749999 0.708329 0
0.708333 0.708328 0
0.749999 0.708329 0
0.708333 0.749996 0
0.749999 0.749996 0
0.666666 0.708328 0
0.708333 0.708328 0
0.666666 0.749995 0
0.708333 0.749996 0
0.666666 0.666661 0
0.708333 0.666661 0
0.666666 0.708328 0
0.708333 0.708328 0
0.416666 0.749994 0
0.416666 0.791662 0
0.374999 0.749995 0
0.374999 0.791662 0
0.416666 0.0833311 0
0.375 0.0833312 0
0.416667 0.0416656 0
0.375 0.0416656 0
0.375 0.0833312 0
0.333333 0.0833314 0
0.375 0.0416656 0
0.333333 0.0416657 0
0.375 0.0416656 0
0.333333 0.0416657 0
0.375 0 0
0.333333 0 0
0.416667 0.0416656 0
0.375 0.0416656 0
0.416667 0 0
0.375 0 0
0.416666 0.749994 0
0.458333 0.749994 0
0.416666 0.791662 0
0.458333 0.791662 0
0.458333 0.749994 0
0.499999 0.749994 0
0.458333 0.791662 0
0.499999 0.791662 0
0.666666 0.624994 0
0.708333 0.624994 0
0.666666 0.666661 0
0.708333 0.666661 0
0.666666 0.583327 0
0.708333 0.583327 0
0.666666 0.624994 0
0.708333 0.624994 0
0.708333 0.583327 0
0.749999 0.583328 0
0.708333 0.624994 0
0.749999 0.624995 0
0.708333 0.624994 0
0.749999 0.624995 0
0.708333 0.666661 0
0.749999 0.666662 0
0.791666 0.624996 0
0.791666 0.666663 0
0.749999 0.624995 0
0.749999 0.666662 0
0.791666 0.583329 0
0.791666 0.624996 0
0.749999 0.583328 0
0.749999 0.624995 0
0.416666 0.458326 0
0.374999 0.458326 0
0.416666 0.416659 0
0.374999 0.416659 0
0.416666 0.499992 0
0.374999 0.499993 0
0.416666 0.458326 0
0.374999 0.458326 0
0.624999 0.54166 0
0.624999 0.583326 0
0.583332 0.541659 0
0.583332 0.583326 0
0.624999 0.499993 0
0.624999 0.54166 0
0.583332 0.499992 0
0.583332 0.541659 0
0.666666 0.499993 0
0.666666 0.54166 0
0.624999 0.499993 0
0.624999 0.54166 0
0.666666 0.54166 0
0.666666 0.583327 0
0.624999 0.54166 0
0.624999 0.583326 0
0.624999 0.333327 0
0.624999 0.374993 0
0.583332 0.333327 0
0.583332 0.374993 0
0.666666 0.374994 0
0.666666 0.41666 0
0.624999 0.374993 0
0.624999 0.41666 0
0.624999 0.374993 0
0.624999 0.41666 0
0.583332 0.374993 0
0.583332 0.416659 0
0.416666 0.499992 0
0.416666 0.541659 0
0.374999 0.499993 0
0.374999 0.541659 0
0.416666 0.541659 0
0.416666 0.583326 0
0.374999 0.541659 0
0.374999 0.583326 0
0.374999 0.541659 0
0.374999 0.583326 0
0.333332 0.54166 0
0.333332 0.583326 0
0.374999 0.499993 0
0.374999 0.541659 0
0.333332 0.499993 0
0.333332 0.54166 0
0.416666 0.624993 0
0.416666 0.66666 0
0.374999 0.624993 0
0.374999 0.66666 0
0.374999 0.624993 0
0.374999 0.66666 0
0.333332 0.624994 0
0.333333 0.666661 0
0.374999 0.583326 0
0.374999 0.624993 0
0.333332 0.583326 0
0.333332 0.624994 0
0.416666 0.583326 0
0.416666 0.624993 0
0.374999 0.583326 0
0.374999 0.624993 0
0.666666 0.54166 0
0.708333 0.541661 0
0.666666 0.583327 0
0.708333 0.583327 0
0.666666 0.499993 0
0.708332 0.499994 0
0.666666 0.54166 0
0.708333 0.541661 0
0.708332 0.499994 0
0.749999 0.499994 0
0.708333 0.541661 0
0.749999 0.541661 0
0.708333 0.541661 0
0.749999 0.541661 0
0.708333 0.583327 0
0.749999 0.583328 0
0.416666 0.708327 0
0.416666 0.749994 0
0.374999 0.708328 0
0.374999 0.749995 0
0.374999 0.708328 0
0.374999 0.749995 0
0.333333 0.708328 0
0.333333 0.749995 0
0.374999 0.66666 0
0.374999 0.708328 0
0.333333 0.666661 0
0.333333 0.708328 0
0.416666 0.66666 0
0.416666 0.708327 0
0.374999 0.66666 0
0.374999 0.708328 0
0.666666 0.583327 0
0.666666 0.624994 0
0.624999 0.583326 0
0.624999 0.624993 0
0.666666 0.624994 0
0.666666 0.666661 0
0.624999 0.624993 0
0.624999 0.66666 0
0.624999 0.624993 0
0.624999 0.66666 0
0.583332 0.624993 0
0.583332 0.66666 0
0.624999 0.583326 0
0.624999 0.624993 0
0.583332 0.583326 0
0.583332 0.624993 0
0.499999 0.66666 0
0.541666 0.66666 0
0.499999 0.708327 0
0.541666 0.708327 0
0.541666 0.66666 0
0.583332 0.66666 0
0.541666 0.708327 0
0.583333 0.708327 0
0.541666 0.708327 0
0.583333 0.708327 0
0.541666 0.749994 0
0.583333 0.749995 0
0.499999 0.708327 0
0.541666 0.708327 0
0.499999 0.749994 0
0.541666 0.749994 0
0.333332 0.54166 0
0.333332 0.583326 0
0.291666 0.54166 0
0.291666 0.583327 0
0.416666 0.0833311 0
0.416667 0.0416656 0
0.458333 0.0833311 0
0.458333 0.0416655 0
0.416667 0.0416656 0
0.416667 0 0
0.458333 0.0416655 0
0.458333 0 0
0.458333 0.0416655 0
0.458333 0 0
0.5 0.0416655 0
0.5 0 0
0.458333 0.0833311 0
0.458333 0.0416655 0
0.5 0.0833311 0
0.5 0.0416655 0
0.541666 0.791662 0
0.583333 0.791662 0
0.541666 0.833329 0
0.583333 0.833329 0
0.499999 0.749994 0
0.541666 0.749994 0
0.499999 0.791662 0
0.541666 0.791662 0
0.541666 0.749994 0
0.583333 0.749995 0
0.541666 0.791662 0
0.583333 0.791662 0
0.624999 0.791662 0
0.625 0.83333 0
0.583333 0.791662 0
0.583333 0.833329 0
0.624999 0.749995 0
0.624999 0.791662 0
0.583333 0.749995 0
0.583333 0.791662 0
0.666666 0.749995 0
0.666666 0.791663 0
0.624999 0.749995 0
0.624999 0.791662 0
0.666666 0.791663 0
0.666666 0.83333 0
0.624999 0.791662 0
0.625 0.83333 0
0.708333 0.791663 0
0.75 0.791663 0
0.708333 0.83333 0
0.75 0.83333 0
0.666666 0.791663 0
0.708333 0.791663 0
0.666666 0.83333 0
0.708333 0.83333 0
0.666666 0.749995 0
0.708333 0.749996 0
0.666666 0.791663 0
0.708333 0.791663 0
0.708333 0.749996 0
0.749999 0.749996 0
0.708333 0.791663 0
0.75 0.791663 0
0.125 0.124999 0
0.125 0.104166 0
0.145833 0.124999 0
0.145833 0.104165 0
0.125 0.104166 0
0.125 0.0833324 0
0.145833 0.104165 0
0.145833 0.0833323 0
0.145833 0.124999 0
0.145833 0.104165 0
0.166666 0.124998 0
0.166666 0.104165 0
0.145833 0.104165 0
0.145833 0.0833323 0
[...]
POINT_DATA 7752
SCALARS solution_0 double 1
LOOKUP_TABLE default
-0.0185663 -0.0222167 0.0170789 0.0134846 -0.015482 -0.0185663 0.0200011 0.0170789 -0.0504699 -0.0534328 -0.015482 -0.0185663 -0.0534328 -0.0569198 -0.0185663 -0.0222167 0.046088 0.0403008 0.0849217 0.0787607 0.0505482 0.046088 0.0893074 0.0849217 0.0134846 0.00907433 0.0505482 0.046088 0.00907433 0.00370552 0.046088 0.0403008 -0.0222167 -0.0264694 0.0134846 0.00907433 -0.0569198 -0.0608625 -0.0222167 -0.0264694 -0.0608625 -0.0651735 -0.0264694 -0.0313571 -0.0264694 -0.0313571 0.00907433 0.00370552 -0.0911106 -0.125784 -0.0945269 -0.128513 -0.0945269 -0.128513 -0.0981882 -0.131614 -0.0608625 -0.0945269 -0.0651735 -0.0981882 -0.0569198 -0.0911106 -0.0608625 -0.0945269 -0.162639 -0.164789 -0.125784 -0.128513 -0.202929 -0.20515 -0.162639 -0.164789 -0.20515 -0.208403 -0.164789 -0.167848 -0.164789 -0.167848 -0.128513 -0.131614 -0.0534328 -0.0881073 -0.0569198 -0.0911106 -0.0504699 -0.085617 -0.0534328 -0.0881073 -0.085617 -0.121886 -0.0881073 -0.123559 -0.0881073 -0.123559 -0.0911106 -0.125784 -0.20515 -0.247386 -0.208403 -0.251061 -0.202929 -0.244486 -0.20515 -0.247386 -0.111432 -0.146632 -0.119542 -0.156594 -0.0796938 -0.111432 -0.0865147 -0.119542 -0.0744707 -0.106082 -0.0796938 -0.111432 -0.106082 -0.139889 -0.111432 -0.146632 0.0200011 0.0170789 0.0563533 0.0539106 0.0170789 0.0134846 0.0539106 0.0505482 0.0539106 0.0505482 0.0921876 0.0893074 0.0563533 0.0539106 0.0937198 0.0921876 0.131778 0.129809 0.171658 0.171306 0.131704 0.131778 0.168957 0.171658 0.0937198 0.0921876 0.131704 0.131778 0.0921876 0.0893074 0.131778 0.129809 -0.201045 -0.202929 -0.161174 -0.162639 -0.161174 -0.162639 -0.123559 -0.125784 -0.159598 -0.161174 -0.121886 -0.123559 0.0238791 0.0582474 0.0244359 0.0569283 0.0582474 0.0920321 0.0569283 0.087947 0.0705396 0.110098 0.0787607 0.119271 0.0600312 0.0978497 0.0705396 0.110098 0.0978497 0.13736 0.110098 0.151376 0.110098 0.151376 0.119271 0.161438 -0.148091 -0.0796465 -0.143186 -0.0772601 -0.0796465 0 -0.0772601 0 -0.177777 -0.186096 -0.139889 -0.146632 0.0409946 0.0694441 0.0632911 0.0962345 0.0140055 0.0409946 0.0318256 0.0632911 -0.106082 -0.101985 -0.139889 -0.135232 -0.0744707 -0.0697349 -0.106082 -0.101985 -0.0697349 -0.0651735 -0.101985 -0.0981882 -0.101985 -0.0981882 -0.135232 -0.131614 0.047119 0.0318256 0.0822794 0.0632911 0.0822794 0.0632911 0.118996 0.0962345 0.0978497 0.0822794 0.13736 0.118996 0.0600312 0.047119 0.0978497 0.0822794 0.168957 0.20358 0.163068 0.193109 -0.134582 -0.118339 -0.0685829 -0.0576459 -0.118339 -0.0981215 -0.0576459 -0.0450849 -0.0576459 -0.0450849 0 0 -0.0685829 -0.0576459 0 0 0.168957 0.171658 0.20358 0.209733 0.171658 0.171306 0.209733 0.211805 0.0241097 0.0136527 0.0600312 0.047119 -0.0100661 -0.0182995 0.0241097 0.0136527 -0.0182995 -0.0275737 0.0136527 0.00165192 0.0136527 0.00165192 0.047119 0.0318256 -0.0124416 0.0140055 0.00165192 0.0318256 -0.0389769 -0.0124416 -0.0275737 0.00165192 -0.085617 -0.0835889 -0.121886 -0.119941 -0.0504699 -0.0480754 -0.085617 -0.0835889 -0.0368369 -0.00269015 -0.0313571 0.00370552 -0.0697349 -0.0368369 -0.0651735 -0.0313571 -0.0744707 -0.0427846 -0.0697349 -0.0368369 -0.0427846 -0.0100661 -0.0368369 -0.00269015 -0.212977 -0.171892 -0.208403 -0.167848 -0.177777 -0.139889 -0.171892 -0.135232 -0.171892 -0.135232 -0.167848 -0.131614 -0.0504699 -0.015482 -0.0480754 -0.0128797 -0.015482 0.0200011 -0.0128797 0.0222972 -0.0128797 0.0222972 -0.010818 0.0238791 -0.0480754 -0.0128797 -0.0456125 -0.010818 0.0563533 0.0937198 0.0579 0.0937924 0.0579 0.0937924 0.0582474 0.0920321 0.0222972 0.0579 0.0238791 0.0582474 0.0200011 0.0563533 0.0222972 0.0579 -0.0427846 -0.0491678 -0.0100661 -0.0182995 -0.0744707 -0.0796938 -0.0427846 -0.0491678 -0.0796938 -0.0865147 -0.0491678 -0.0566293 -0.0491678 -0.0566293 -0.0182995 -0.0275737 0.131704 0.168957 0.129361 0.163068 0.129361 0.163068 0.124279 0.153754 0.0937924 0.129361 0.0920321 0.124279 0.0937198 0.131704 0.0937924 0.129361 -0.0100661 0.0241097 -0.00269015 0.0330039 0.0241097 0.0600312 0.0330039 0.0705396 0.0330039 0.0705396 0.0403008 0.0787607 -0.00269015 0.0330039 0.00370552 0.0403008 0.0893074 0.0849217 0.129809 0.125727 0.0849217 0.0787607 0.125727 0.119271 0.125727 0.119271 0.167955 0.161438 0.129809 0.125727 0.171306 0.167955 -0.010818 0.0238791 -0.00895877 0.0244359 -0.134582 -0.0685829 -0.144889 -0.0764726 -0.0685829 0 -0.0764726 0 -0.0764726 0 -0.0796465 0 -0.144889 -0.0764726 -0.148091 -0.0796465 0.20988 0.203747 0.248521 0.243614 0.171306 0.167955 0.211805 0.20988 0.167955 0.161438 0.20988 0.203747 0.193116 0.233199 0.203747 0.243614 0.151376 0.193116 0.161438 0.203747 0.13736 0.177627 0.151376 0.193116 0.177627 0.217382 0.193116 0.233199 0.156913 0.1309 0.195977 0.168842 0.177627 0.156913 0.217382 0.195977 0.13736 0.118996 0.177627 0.156913 0.118996 0.0962345 0.156913 0.1309 -0.0238284 -0.0165352 -0.0322883 -0.0231147 -0.0165352 -0.0100431 -0.0231147 -0.0148029 -0.0322883 -0.0231147 -0.0420624 -0.0309191 -0.0231147 -0.0148029 -0.0309191 -0.0206523 -0.0393657 -0.0315612 -0.051406 -0.0418696 -0.0315612 -0.0238284 -0.0418696 -0.0322883 -0.051406 -0.0418696 -0.0647859 -0.0535314 -0.0418696 -0.0322883 -0.0535314 -0.0420624 -0.0194878 -0.0150475 -0.0287193 -0.0226237 -0.0150475 -0.010779 -0.0226237 -0.0166706 -0.0287193 -0.0226237 -0.0393657 -0.0315612 -0.0226237 -0.0166706 -0.0315612 -0.0238284 -0.010779 -0.00689595 -0.0166706 -0.0111485 -0.00689595 -0.00360364 -0.0111485 -0.0063346 -0.0166706 -0.0111485 -0.0238284 -0.0165352 -0.0111485 -0.0063346 -0.0165352 -0.0100431 -0.119267 -0.101629 -0.108088 -0.0912719 -0.101629 -0.0846524 -0.0912719 -0.0753134 -0.108088 -0.0912719 -0.0949942 -0.0793826 -0.0912719 -0.0753134 -0.0793826 -0.0647859 -0.155172 -0.137232 -0.143019 -0.125451 -0.137232 -0.119267 -0.125451 -0.108088 -0.143019 -0.125451 -0.128114 -0.111347 -0.125451 -0.108088 -0.111347 -0.0949942 -0.169521 -0.15214 -0.164107 -0.146233 -0.15214 -0.134234 -0.146233 -0.128089 -0.164107 -0.146233 -0.155172 -0.137232 -0.146233 -0.128089 -0.137232 -0.119267 -0.134234 -0.116161 -0.128089 -0.110031 -0.116161 -0.0982833 -0.110031 -0.0924113 -0.128089 -0.110031 -0.119267 -0.101629 -0.110031 -0.0924113 -0.101629 -0.0846524 0.163953 0.144798 0.166151 0.148852 0.144798 0.124768 0.148852 0.130675 0.166151 0.148852 0.165653 0.150231 0.148852 0.130675 0.150231 0.133926 0.198718 0.181989 0.197288 0.182352 0.181989 0.163953 0.182352 0.166151 0.197288 0.182352 0.193123 0.179999 0.182352 0.166151 0.179999 0.165653 0.20018 0.179703 0.197998 0.179481 0.179703 0.157959 0.179481 0.159641 0.197998 0.179481 0.198718 0.181989 0.179481 0.159641 0.181989 0.163953 0.157959 0.13515 0.159641 0.138676 0.13515 0.111543 0.138676 0.11685 0.159641 0.138676 0.163953 0.144798 0.138676 0.11685 0.144798 0.124768 -0.174627 -0.143282 -0.152773 -0.122928 -0.143282 -0.11277 -0.122928 -0.0946541 -0.152773 -0.122928 -0.12985 -0.102293 -0.122928 -0.0946541 -0.102293 -0.0768127 -0.212437 -0.180403 -0.194685 -0.162636 -0.180403 -0.147316 -0.162636 -0.130518 -0.194685 -0.162636 -0.174627 -0.143282 -0.162636 -0.130518 -0.143282 -0.11277 -0.147316 -0.115368 -0.130518 -0.100179 -0.115368 -0.0860841 -0.100179 -0.0728667 -0.130518 -0.100179 -0.11277 -0.0845498 -0.100179 -0.0728667 -0.0845498 -0.0595856 -0.11277 -0.0845498 -0.0946541 -0.0690094 -0.0845498 -0.0595856 -0.0690094 -0.046701 -0.0946541 -0.0690094 -0.0768127 -0.0541037 -0.0690094 -0.046701 -0.0541037 -0.0346592 -0.244486 -0.263143 -0.245936 -0.26498 -0.263143 -0.278039 -0.26498 -0.280349 -0.245936 -0.26498 -0.247386 -0.266864 -0.26498 -0.280349 -0.266864 -0.282254 -0.247386 -0.266864 -0.249223 -0.268611 -0.266864 -0.282254 -0.268611 -0.283797 -0.249223 -0.268611 -0.251061 -0.27049 -0.268611 -0.283797 -0.27049 -0.284864 -0.0537561 -0.0468784 -0.0686235 -0.0604592 -0.0468784 -0.0393657 -0.0604592 -0.051406 -0.0686235 -0.0604592 -0.0846524 -0.0753134 -0.0604592 -0.051406 -0.0753134 -0.0647859 -0.0644301 -0.0596917 -0.0809435 -0.0755465 -0.0596917 -0.0537561 -0.0755465 -0.0686235 -0.0809435 -0.0755465 -0.0982833 -0.0924113 -0.0755465 -0.0686235 -0.0924113 -0.0846524 -0.0347153 -0.0316843 -0.0489636 -0.0450271 -0.0316843 -0.0280141 -0.0450271 -0.0401887 -0.0489636 -0.0450271 -0.0644301 -0.0596917 -0.0450271 -0.0401887 -0.0596917 -0.0537561 -0.0280141 -0.0238816 -0.0401887 -0.0346675 -0.0238816 -0.0194878 -0.0346675 -0.0287193 -0.0401887 -0.0346675 -0.0537561 -0.0468784 -0.0346675 -0.0287193 -0.0468784 -0.0393657 0.0283253 0.0430827 0.0479539 0.0633856 0.0430827 0.0615509 0.0633856 0.0824107 0.0479539 0.0633856 0.0662676 0.0823613 0.0633856 0.0824107 0.0823613 0.101733 0.00483176 0.015878 0.0228971 0.0347493 0.015878 0.0283253 0.0347493 0.0479539 0.0228971 0.0347493 0.0393975 0.0521976 0.0347493 0.0479539 0.0521976 0.0662676 -0.0343904 -0.0267222 -0.0150612 -0.00504128 -0.0267222 -0.0172725 -0.00504128 0.00651747 -0.0150612 -0.00504128 0.00483176 0.015878 -0.00504128 0.00651747 0.015878 0.0283253 -0.0172725 -0.00519275 0.00651747 0.0204729 -0.00519275 0.0107259 0.0204729 0.0381362 0.00651747 0.0204729 0.0283253 0.0430827 0.0204729 0.0381362 0.0430827 0.0615509 -0.0723304 -0.0681915 -0.0884334 -0.0832677 -0.0681915 -0.0630944 -0.0832677 -0.0769566 -0.0884334 -0.0832677 -0.104142 -0.0978126 -0.0832677 -0.0769566 -0.0978126 -0.0901811 -0.0397331 -0.0373382 -0.0560452 -0.0528202 -0.0373382 -0.0344015 -0.0528202 -0.048841 -0.0560452 -0.0528202 -0.0723304 -0.0681915 -0.0528202 -0.048841 -0.0681915 -0.0630944 -0.0344015 -0.0308826 -0.048841 -0.0440923 -0.0308826 -0.0267865 -0.0440923 -0.0386145 -0.048841 -0.0440923 -0.0630944 -0.0570535 -0.0440923 -0.0386145 -0.0570535 -0.0501518 -0.0630944 -0.0570535 -0.0769566 -0.0695535 -0.0570535 -0.0501518 -0.0695535 -0.0611885 -0.0769566 -0.0695535 -0.0901811 -0.0813472 -0.0695535 -0.0611885 -0.0813472 -0.0714914 0.416498 0.4339 0.657267 0.669863 0.4339 0.44991 0.669863 0.68133 0.657267 0.669863 1 1 0.669863 0.68133 1 1 0.267249 0.280092 0.304378 0.32019 0.280092 0.291373 0.32019 0.334547 0.304378 0.32019 0.416498 0.4339 0.32019 0.334547 0.4339 0.44991 0.291373 0.30113 0.334547 0.347468 0.30113 0.309408 0.347468 0.358984 0.334547 0.347468 0.44991 0.464524 0.347468 0.358984 0.464524 0.477755 0.44991 0.464524 0.68133 0.691674 0.464524 0.477755 0.691674 0.700917 0.68133 0.691674 1 1 0.691674 0.700917 1 1 0.111543 0.0874919 0.11685 0.0945084 0.0874919 0.063455 0.0945084 0.0720976 0.11685 0.0945084 0.124768 0.104177 0.0945084 0.0720976 0.104177 0.0834224 0.063455 0.0400162 0.0720976 0.0501884 0.0400162 0.0179059 0.0501884 0.0294969 0.0720976 0.0501884 0.0834224 0.0630136 0.0501884 0.0294969 0.0630136 0.0435874 0.0834224 0.0630136 0.0928412 0.0739432 0.0630136 0.0435874 0.0739432 0.0557243 0.0928412 0.0739432 0.0996379 0.0822592 0.0739432 0.0557243 0.0822592 0.0652368 0.124768 0.104177 0.130675 0.111892 0.104177 0.0834224 0.111892 0.0928412 0.130675 0.111892 0.133926 0.11697 0.111892 0.0928412 0.11697 0.0996379 -0.025589 -0.0151242 -0.0357149 -0.0214921 -0.0151242 -0.00720386 -0.0214921 -0.00958157 -0.0357149 -0.0214921 -0.0368426 -0.0218121 -0.0214921 -0.00958157 -0.0218121 -0.00748598 0 0 -0.00952492 -0.0052499 0 0 -0.0052499 -0.00251912 -0.00952492 -0.0052499 -0.025589 -0.0151242 -0.0052499 -0.00251912 -0.0151242 -0.00720386 0 0 -0.00251912 -0.000827523 0 0 -0.000827523 0.000213986 -0.00251912 -0.000827523 -0.00720386 -0.0019087 -0.000827523 0.000213986 -0.0019087 0.00159913 -0.00720386 -0.0019087 -0.00958157 -0.000875141 -0.0019087 0.00159913 -0.000875141 0.00527891 -0.00958157 -0.000875141 -0.00748598 0.00366055 -0.000875141 0.00527891 0.00366055 0.0119783 -0.199196 -0.200133 -0.179402 -0.180197 -0.200133 -0.201045 -0.180197 -0.18111 -0.179402 -0.180197 -0.159598 -0.160386 -0.180197 -0.18111 -0.160386 -0.161174 -0.0343797 -0.0423716 -0.0425296 -0.0520502 -0.0423716 -0.0496951 -0.0520502 -0.0608502 -0.0425296 -0.0520502 -0.0501518 -0.0611885 -0.0520502 -0.0608502 -0.0611885 -0.0714914 -0.0171379 -0.0259082 -0.0221649 -0.0325017 -0.0259082 -0.0343797 -0.0325017 -0.0425296 -0.0221649 -0.0325017 -0.0267865 -0.0386145 -0.0325017 -0.0425296 -0.0386145 -0.0501518 -0.00703105 -0.0124699 -0.0119467 -0.0190877 -0.0124699 -0.017729 -0.0190877 -0.0259731 -0.0119467 -0.0190877 -0.0171379 -0.0259082 -0.0190877 -0.0259731 -0.0259082 -0.0343797 -0.017729 -0.0226719 -0.0259731 -0.0324427 -0.0226719 -0.0271632 -0.0324427 -0.0383339 -0.0259731 -0.0324427 -0.0343797 -0.0423716 -0.0324427 -0.0383339 -0.0423716 -0.0496951 0.227756 0.214004 0.222913 0.210835 0.214004 0.198718 0.210835 0.197288 0.222913 0.210835 0.215318 0.204912 0.210835 0.197288 0.204912 0.193123 0.250462 0.239917 0.242517 0.233484 0.239917 0.227756 0.233484 0.222913 0.242517 0.233484 0.231857 0.224306 0.233484 0.222913 0.224306 0.215318 0.267249 0.252825 0.256619 0.244401 0.252825 0.236817 0.244401 0.230535 0.256619 0.244401 0.250462 0.239917 0.244401 0.230535 0.239917 0.227756 0.236817 0.21925 0.230535 0.215048 0.21925 0.20018 0.215048 0.197998 0.230535 0.215048 0.227756 0.214004 0.215048 0.197998 0.214004 0.198718 -0.157927 -0.138867 -0.156477 -0.137744 -0.138867 -0.119941 -0.137744 -0.118916 -0.156477 -0.137744 -0.154291 -0.136058 -0.137744 -0.118916 -0.136058 -0.117657 -0.195752 -0.177075 -0.192793 -0.175024 -0.177075 -0.157927 -0.175024 -0.156477 -0.192793 -0.175024 -0.188648 -0.17201 -0.175024 -0.156477 -0.17201 -0.154291 -0.199196 -0.179402 -0.197789 -0.178462 -0.179402 -0.159598 -0.178462 -0.158817 -0.197789 -0.178462 -0.195752 -0.177075 -0.178462 -0.158817 -0.177075 -0.157927 -0.159598 -0.140742 -0.158817 -0.139737 -0.140742 -0.121886 -0.139737 -0.120913 -0.158817 -0.139737 -0.157927 -0.138867 -0.139737 -0.120913 -0.138867 -0.119941 -0.220717 -0.22941 -0.220309 -0.234893 -0.22941 -0.232432 -0.234893 -0.243212 -0.220309 -0.234893 -0.212907 -0.233078 -0.234893 -0.243212 -0.233078 -0.247066 -0.212907 -0.233078 -0.198909 -0.223599 -0.233078 -0.247066 -0.223599 -0.242861 -0.198909 -0.223599 -0.179539 -0.207096 -0.223599 -0.242861 -0.207096 -0.230487 -0.155531 -0.186656 -0.137408 -0.169604 -0.186656 -0.212907 -0.169604 -0.198909 -0.137408 -0.169604 -0.117695 -0.149104 -0.169604 -0.198909 -0.149104 -0.179539 -0.181261 -0.20486 -0.170573 -0.198736 -0.20486 -0.220717 -0.198736 -0.220309 -0.170573 -0.198736 -0.155531 -0.186656 -0.198736 -0.220309 -0.186656 -0.212907 0.0393975 0.0521976 0.0548433 0.0687089 0.0521976 0.0662676 0.0687089 0.0837431 0.0548433 0.0687089 0.0694441 0.0844555 0.0687089 0.0837431 0.0844555 0.100493 0.0662676 0.0823613 0.0837431 0.100458 0.0823613 0.101733 0.100458 0.119988 0.0837431 0.100458 0.100493 0.117778 0.100458 0.119988 0.117778 0.137296 0.100493 0.117778 0.116296 0.134097 0.117778 0.137296 0.134097 0.153595 0.116296 0.134097 0.1309 0.149871 0.134097 0.153595 0.149871 0.168842 0.0694441 0.0844555 0.0828393 0.0995665 0.0844555 0.100493 0.0995665 0.116296 0.0828393 0.0995665 0.0962345 0.113567 0.0995665 0.116296 0.113567 0.1309 0.0569283 0.0724376 0.0555638 0.0703949 0.0724376 0.087947 0.0703949 0.0846893 0.0555638 0.0703949 0.0535307 0.0674945 0.0703949 0.0846893 0.0674945 0.0806956 0.0244359 0.0406821 0.0243718 0.0401155 0.0406821 0.0569283 0.0401155 0.0555638 0.0243718 0.0401155 0.0238613 0.038949 0.0401155 0.0555638 0.038949 0.0535307 -0.199196 -0.197789 -0.218606 -0.216374 -0.197789 -0.195752 -0.216374 -0.213282 -0.218606 -0.216374 -0.236531 -0.233126 -0.216374 -0.213282 -0.233126 -0.228654 -0.195752 -0.192793 -0.213282 -0.209063 -0.192793 -0.188648 -0.209063 -0.20346 -0.213282 -0.209063 -0.228654 -0.222868 -0.209063 -0.20346 -0.222868 -0.215556 -0.228654 -0.222868 -0.240684 -0.233139 -0.222868 -0.215556 -0.233139 -0.223999 -0.240684 -0.233139 -0.248164 -0.238852 -0.233139 -0.223999 -0.238852 -0.227949 -0.236531 -0.233126 -0.251638 -0.246783 -0.233126 -0.228654 -0.246783 -0.240684 -0.251638 -0.246783 -0.262388 -0.255963 -0.246783 -0.240684 -0.255963 -0.248164 -0.100026 -0.0886468 -0.093576 -0.08004 -0.0886468 -0.0772903 -0.08004 -0.0669921 -0.093576 -0.08004 -0.0840813 -0.0697194 -0.08004 -0.0669921 -0.0697194 -0.0560847 -0.121459 -0.111108 -0.121186 -0.107405 -0.111108 -0.100026 -0.107405 -0.093576 -0.121186 -0.107405 -0.114768 -0.0991491 -0.107405 -0.093576 -0.0991491 -0.0840813 -0.0899154 -0.0882623 -0.111521 -0.105657 -0.0882623 -0.0854268 -0.105657 -0.098612 -0.111521 -0.105657 -0.121459 -0.111108 -0.105657 -0.098612 -0.111108 -0.100026 -0.0854268 -0.0816883 -0.098612 -0.090791 -0.0816883 -0.0773165 -0.090791 -0.0825331 -0.098612 -0.090791 -0.100026 -0.0886468 -0.090791 -0.0825331 -0.0886468 -0.0772903 0.0394975 0.113637 0.0049579 0.0585976 0.113637 0.168661 0.0585976 0.105386 0.0049579 0.0585976 -0.015248 0.0222813 0.0585976 0.105386 0.0222813 0.0623373 -0.015248 0.0222813 -0.027051 -0.0020619 0.0222813 0.0623373 -0.0020619 0.0322944 -0.027051 -0.0020619 -0.0335304 -0.0184576 -0.0020619 0.0322944 -0.0184576 0.0107259 0 -0.0175349 0 -0.0183108 -0.0175349 -0.015248 -0.0183108 -0.027051 0 -0.0183108 0 -0.0179789 -0.0183108 -0.027051 -0.0179789 -0.0335304 0 -0.00974069 0 -0.0151443 -0.00974069 0.0394975 -0.0151443 0.0049579 0 -0.0151443 0 -0.0175349 -0.0151443 0.0049579 -0.0175349 -0.015248 -0.00273031 -0.00153929 -0.0061268 -0.00371136 -0.00153929 -0.000612776 -0.00371136 -0.00173802 -0.0061268 -0.00371136 -0.010779 -0.00689595 -0.00371136 -0.00173802 -0.00689595 -0.00360364 -0.00558744 -0.00410498 -0.0117213 -0.0088445 -0.00410498 -0.00273031 -0.0088445 -0.0061268 -0.0117213 -0.0088445 -0.0194878 -0.0150475 -0.0088445 -0.0061268 -0.0150475 -0.010779 0 0 -0.00144825 -0.00103242 0 0 -0.00103242 -0.00065365 -0.00144825 -0.00103242 -0.00558744 -0.00410498 -0.00103242 -0.00065365 -0.00410498 -0.00273031 0 0 -0.00065365 -0.00033341 0 0 -0.00033341 -9.57118e-05 -0.00065365 -0.00033341 -0.00273031 -0.00153929 -0.00033341 -9.57118e-05 -0.00153929 -0.000612776 -0.00748598 0.00366055 -0.000510609 0.0120661 0.00366055 0.0119783 0.0120661 0.0217979 -0.000510609 0.0120661 0.0109076 0.0240143 0.0120661 0.0217979 0.0240143 0.0343684 0.0109076 0.0240143 0.02592 0.0388307 0.0240143 0.0343684 0.0388307 0.0490711 0.02592 0.0388307 0.0435874 0.0557243 0.0388307 0.0490711 0.0557243 0.0652368 -0.01859 -0.00459906 -0.0019841 0.0108958 -0.00459906 0.0109076 0.0108958 0.02592 -0.0019841 0.0108958 0.0179059 0.0294969 0.0108958 0.02592 0.0294969 0.0435874 -0.0368426 -0.0218121 -0.0306862 -0.0158655 -0.0218121 -0.00748598 -0.0158655 -0.000510609 -0.0306862 -0.0158655 -0.01859 -0.00459906 -0.0158655 -0.000510609 -0.00459906 0.0109076 -0.0772601 -0.0386301 -0.0727722 -0.0385361 -0.0386301 0 -0.0385361 0 -0.0727722 -0.0385361 -0.0676845 -0.0356599 -0.0385361 0 -0.0356599 0 -0.143186 -0.110223 -0.137638 -0.105365 -0.110223 -0.0772601 -0.105365 -0.0727722 -0.137638 -0.105365 -0.130259 -0.0985637 -0.105365 -0.0727722 -0.0985637 -0.0676845 0.481418 0.682643 0.502672 0.70249 0.682643 1 0.70249 1 0.502672 0.70249 0.517167 0.716127 0.70249 1 0.716127 1 0.236581 0.337336 0.257792 0.358486 0.337336 0.481418 0.358486 0.502672 0.257792 0.358486 0.274 0.373514 0.358486 0.502672 0.373514 0.517167 0.168661 0.263015 0.207989 0.30705 0.263015 0.403398 0.30705 0.450069 0.207989 0.30705 0.236581 0.337336 0.30705 0.450069 0.337336 0.481418 0.403398 0.611418 0.450069 0.653706 0.611418 1 0.653706 1 0.450069 0.653706 0.481418 0.682643 0.653706 1 0.682643 1 -0.0122967 -0.0243465 -0.0117135 -0.0233242 -0.0243465 -0.0381791 -0.0233242 -0.0366751 -0.0117135 -0.0233242 -0.0107835 -0.0216789 -0.0233242 -0.0366751 -0.0216789 -0.0342783 -0.0107835 -0.0216789 -0.00954307 -0.0194696 -0.0216789 -0.0342783 -0.0194696 -0.0310724 -0.00954307 -0.0194696 -0.00804019 -0.0167734 -0.0194696 -0.0310724 -0.0167734 -0.0271632 0 -0.00288801 0 -0.0025052 -0.00288801 -0.0107835 -0.0025052 -0.00954307 0 -0.0025052 0 -0.0020477 -0.0025052 -0.00954307 -0.0020477 -0.00804019 0 -0.00336627 0 -0.00317931 -0.00336627 -0.0122967 -0.00317931 -0.0117135 0 -0.00317931 0 -0.00288801 -0.00317931 -0.0117135 -0.00288801 -0.0107835 -0.220365 -0.224448 -0.198773 -0.202844 -0.224448 -0.228497 -0.20