# vtk DataFile Version 3.0
#This file was generated by the deal.II library on 2020/12/25 at 19:39:33
ASCII
DATASET UNSTRUCTURED_GRID

POINTS 15780 double
0.458332 0.541659 0
0.499999 0.541659 0
0.458332 0.583326 0
0.499999 0.583326 0
0.416666 0.541659 0
0.458332 0.541659 0
0.416666 0.583326 0
0.458332 0.583326 0
0.416666 0.499992 0
0.458332 0.499992 0
0.416666 0.541659 0
0.458332 0.541659 0
0.458332 0.499992 0
0.499999 0.499992 0
0.458332 0.541659 0
0.499999 0.541659 0
0.541666 0.624993 0
0.583332 0.624993 0
0.541666 0.66666 0
0.583332 0.66666 0
0.499999 0.624993 0
0.541666 0.624993 0
0.499999 0.66666 0
0.541666 0.66666 0
0.499999 0.583326 0
0.541666 0.583326 0
0.499999 0.624993 0
0.541666 0.624993 0
0.541666 0.583326 0
0.583332 0.583326 0
0.541666 0.624993 0
0.583332 0.624993 0
0.499999 0.541659 0
0.541666 0.541659 0
0.499999 0.583326 0
0.541666 0.583326 0
0.499999 0.499992 0
0.541666 0.499992 0
0.499999 0.541659 0
0.541666 0.541659 0
0.541666 0.499992 0
0.583332 0.499992 0
0.541666 0.541659 0
0.583332 0.541659 0
0.541666 0.541659 0
0.583332 0.541659 0
0.541666 0.583326 0
0.583332 0.583326 0
0.499999 0.458326 0
0.499999 0.416659 0
0.541666 0.458326 0
0.541666 0.416659 0
0.541666 0.458326 0
0.541666 0.416659 0
0.583332 0.458326 0
0.583332 0.416659 0
0.541666 0.499992 0
0.541666 0.458326 0
0.583332 0.499992 0
0.583332 0.458326 0
0.499999 0.499992 0
0.499999 0.458326 0
0.541666 0.499992 0
0.541666 0.458326 0
0.499999 0.374993 0
0.541666 0.374993 0
0.499999 0.416659 0
0.541666 0.416659 0
0.499999 0.333326 0
0.541666 0.333326 0
0.499999 0.374993 0
0.541666 0.374993 0
0.541666 0.333326 0
0.583332 0.333327 0
0.541666 0.374993 0
0.583332 0.374993 0
0.541666 0.374993 0
0.583332 0.374993 0
0.541666 0.416659 0
0.583332 0.416659 0
0.458332 0.499992 0
0.458332 0.458326 0
0.499999 0.499992 0
0.499999 0.458326 0
0.416666 0.499992 0
0.416666 0.458326 0
0.458332 0.499992 0
0.458332 0.458326 0
0.416666 0.458326 0
0.416666 0.416659 0
0.458332 0.458326 0
0.458332 0.416659 0
0.458332 0.458326 0
0.458332 0.416659 0
0.499999 0.458326 0
0.499999 0.416659 0
0.541666 0.333326 0
0.541666 0.29166 0
0.583332 0.333327 0
0.583333 0.29166 0
0.499999 0.333326 0
0.499999 0.29166 0
0.541666 0.333326 0
0.541666 0.29166 0
0.708333 0.458327 0
0.708333 0.41666 0
0.749999 0.458328 0
0.749999 0.416661 0
0.708332 0.499994 0
0.708333 0.458327 0
0.749999 0.499994 0
0.749999 0.458328 0
0.666666 0.499993 0
0.666666 0.458327 0
0.708332 0.499994 0
0.708333 0.458327 0
0.666666 0.458327 0
0.666666 0.41666 0
0.708333 0.458327 0
0.708333 0.41666 0
0.416666 0.583326 0
0.458332 0.583326 0
0.416666 0.624993 0
0.458332 0.624993 0
0.458332 0.583326 0
0.499999 0.583326 0
0.458332 0.624993 0
0.499999 0.624993 0
0.458332 0.624993 0
0.499999 0.624993 0
0.458332 0.66666 0
0.499999 0.66666 0
0.416666 0.624993 0
0.458332 0.624993 0
0.416666 0.66666 0
0.458332 0.66666 0
0.458333 0.708327 0
0.499999 0.708327 0
0.458333 0.749994 0
0.499999 0.749994 0
0.416666 0.708327 0
0.458333 0.708327 0
0.416666 0.749994 0
0.458333 0.749994 0
0.416666 0.66666 0
0.458332 0.66666 0
0.416666 0.708327 0
0.458333 0.708327 0
0.458332 0.66666 0
0.499999 0.66666 0
0.458333 0.708327 0
0.499999 0.708327 0
0.458332 0.333326 0
0.499999 0.333326 0
0.458332 0.374993 0
0.499999 0.374993 0
0.458332 0.374993 0
0.499999 0.374993 0
0.458332 0.416659 0
0.499999 0.416659 0
0.416666 0.374993 0
0.458332 0.374993 0
0.416666 0.416659 0
0.458332 0.416659 0
0.333332 0.583326 0
0.333332 0.624994 0
0.291666 0.583327 0
0.291666 0.624994 0
0.333332 0.624994 0
0.333333 0.666661 0
0.291666 0.624994 0
0.291666 0.666661 0
0.624999 0.66666 0
0.624999 0.708328 0
0.583332 0.66666 0
0.583333 0.708327 0
0.666666 0.666661 0
0.666666 0.708328 0
0.624999 0.66666 0
0.624999 0.708328 0
0.666666 0.708328 0
0.666666 0.749995 0
0.624999 0.708328 0
0.624999 0.749995 0
0.624999 0.708328 0
0.624999 0.749995 0
0.583333 0.708327 0
0.583333 0.749995 0
0.5 0.0833311 0
0.5 0.0416655 0
0.541666 0.0833311 0
0.541667 0.0416655 0
0.5 0.0416655 0
0.5 0 0
0.541667 0.0416655 0
0.541667 0 0
0.791666 0.70833 0
0.791666 0.749997 0
0.749999 0.708329 0
0.749999 0.749996 0
0.791666 0.666663 0
0.791666 0.70833 0
0.749999 0.666662 0
0.749999 0.708329 0
0.666666 0.458327 0
0.624999 0.458326 0
0.666666 0.41666 0
0.624999 0.41666 0
0.666666 0.499993 0
0.624999 0.499993 0
0.666666 0.458327 0
0.624999 0.458326 0
0.624999 0.499993 0
0.583332 0.499992 0
0.624999 0.458326 0
0.583332 0.458326 0
0.624999 0.458326 0
0.583332 0.458326 0
0.624999 0.41666 0
0.583332 0.416659 0
0.708333 0.666661 0
0.749999 0.666662 0
0.708333 0.708328 0
0.749999 0.708329 0
0.708333 0.708328 0
0.749999 0.708329 0
0.708333 0.749996 0
0.749999 0.749996 0
0.666666 0.708328 0
0.708333 0.708328 0
0.666666 0.749995 0
0.708333 0.749996 0
0.666666 0.666661 0
0.708333 0.666661 0
0.666666 0.708328 0
0.708333 0.708328 0
0.416666 0.749994 0
0.416666 0.791662 0
0.374999 0.749995 0
0.374999 0.791662 0
0.416666 0.0833311 0
0.375 0.0833312 0
0.416667 0.0416656 0
0.375 0.0416656 0
0.375 0.0833312 0
0.333333 0.0833314 0
0.375 0.0416656 0
0.333333 0.0416657 0
0.375 0.0416656 0
0.333333 0.0416657 0
0.375 0 0
0.333333 0 0
0.416667 0.0416656 0
0.375 0.0416656 0
0.416667 0 0
0.375 0 0
0.416666 0.749994 0
0.458333 0.749994 0
0.416666 0.791662 0
0.458333 0.791662 0
0.458333 0.749994 0
0.499999 0.749994 0
0.458333 0.791662 0
0.499999 0.791662 0
0.666666 0.624994 0
0.708333 0.624994 0
0.666666 0.666661 0
0.708333 0.666661 0
0.666666 0.583327 0
0.708333 0.583327 0
0.666666 0.624994 0
0.708333 0.624994 0
0.708333 0.583327 0
0.749999 0.583328 0
0.708333 0.624994 0
0.749999 0.624995 0
0.708333 0.624994 0
0.749999 0.624995 0
0.708333 0.666661 0
0.749999 0.666662 0
0.791666 0.624996 0
0.791666 0.666663 0
0.749999 0.624995 0
0.749999 0.666662 0
0.791666 0.583329 0
0.791666 0.624996 0
0.749999 0.583328 0
0.749999 0.624995 0
0.416666 0.458326 0
0.374999 0.458326 0
0.416666 0.416659 0
0.374999 0.416659 0
0.416666 0.499992 0
0.374999 0.499993 0
0.416666 0.458326 0
0.374999 0.458326 0
0.624999 0.54166 0
0.624999 0.583326 0
0.583332 0.541659 0
0.583332 0.583326 0
0.624999 0.499993 0
0.624999 0.54166 0
0.583332 0.499992 0
0.583332 0.541659 0
0.666666 0.499993 0
0.666666 0.54166 0
0.624999 0.499993 0
0.624999 0.54166 0
0.666666 0.54166 0
0.666666 0.583327 0
0.624999 0.54166 0
0.624999 0.583326 0
0.624999 0.333327 0
0.624999 0.374993 0
0.583332 0.333327 0
0.583332 0.374993 0
0.666666 0.374994 0
0.666666 0.41666 0
0.624999 0.374993 0
0.624999 0.41666 0
0.624999 0.374993 0
0.624999 0.41666 0
0.583332 0.374993 0
0.583332 0.416659 0
0.416666 0.499992 0
0.416666 0.541659 0
0.374999 0.499993 0
0.374999 0.541659 0
0.416666 0.541659 0
0.416666 0.583326 0
0.374999 0.541659 0
0.374999 0.583326 0
0.374999 0.541659 0
0.374999 0.583326 0
0.333332 0.54166 0
0.333332 0.583326 0
0.374999 0.499993 0
0.374999 0.541659 0
0.333332 0.499993 0
0.333332 0.54166 0
0.416666 0.624993 0
0.416666 0.66666 0
0.374999 0.624993 0
0.374999 0.66666 0
0.374999 0.624993 0
0.374999 0.66666 0
0.333332 0.624994 0
0.333333 0.666661 0
0.374999 0.583326 0
0.374999 0.624993 0
0.333332 0.583326 0
0.333332 0.624994 0
0.416666 0.583326 0
0.416666 0.624993 0
0.374999 0.583326 0
0.374999 0.624993 0
0.666666 0.54166 0
0.708333 0.541661 0
0.666666 0.583327 0
0.708333 0.583327 0
0.666666 0.499993 0
0.708332 0.499994 0
0.666666 0.54166 0
0.708333 0.541661 0
0.708332 0.499994 0
0.749999 0.499994 0
0.708333 0.541661 0
0.749999 0.541661 0
0.708333 0.541661 0
0.749999 0.541661 0
0.708333 0.583327 0
0.749999 0.583328 0
0.416666 0.708327 0
0.416666 0.749994 0
0.374999 0.708328 0
0.374999 0.749995 0
0.374999 0.708328 0
0.374999 0.749995 0
0.333333 0.708328 0
0.333333 0.749995 0
0.374999 0.66666 0
0.374999 0.708328 0
0.333333 0.666661 0
0.333333 0.708328 0
0.416666 0.66666 0
0.416666 0.708327 0
0.374999 0.66666 0
0.374999 0.708328 0
0.666666 0.583327 0
0.666666 0.624994 0
0.624999 0.583326 0
0.624999 0.624993 0
0.666666 0.624994 0
0.666666 0.666661 0
0.624999 0.624993 0
0.624999 0.66666 0
0.624999 0.624993 0
0.624999 0.66666 0
0.583332 0.624993 0
0.583332 0.66666 0
0.624999 0.583326 0
0.624999 0.624993 0
0.583332 0.583326 0
0.583332 0.624993 0
0.499999 0.66666 0
0.541666 0.66666 0
0.499999 0.708327 0
0.541666 0.708327 0
0.541666 0.66666 0
0.583332 0.66666 0
0.541666 0.708327 0
0.583333 0.708327 0
0.541666 0.708327 0
0.583333 0.708327 0
0.541666 0.749994 0
0.583333 0.749995 0
0.499999 0.708327 0
0.541666 0.708327 0
0.499999 0.749994 0
0.541666 0.749994 0
0.333332 0.54166 0
0.333332 0.583326 0
0.291666 0.54166 0
0.291666 0.583327 0
0.416666 0.0833311 0
0.416667 0.0416656 0
0.458333 0.0833311 0
0.458333 0.0416655 0
0.416667 0.0416656 0
0.416667 0 0
0.458333 0.0416655 0
0.458333 0 0
0.458333 0.0416655 0
0.458333 0 0
0.5 0.0416655 0
0.5 0 0
0.458333 0.0833311 0
0.458333 0.0416655 0
0.5 0.0833311 0
0.5 0.0416655 0
0.541666 0.791662 0
0.583333 0.791662 0
0.541666 0.833329 0
0.583333 0.833329 0
0.499999 0.749994 0
0.541666 0.749994 0
0.499999 0.791662 0
0.541666 0.791662 0
0.541666 0.749994 0
0.583333 0.749995 0
0.541666 0.791662 0
0.583333 0.791662 0
0.624999 0.791662 0
0.625 0.83333 0
0.583333 0.791662 0
0.583333 0.833329 0
0.624999 0.749995 0
0.624999 0.791662 0
0.583333 0.749995 0
0.583333 0.791662 0
0.666666 0.749995 0
0.666666 0.791663 0
0.624999 0.749995 0
0.624999 0.791662 0
0.666666 0.791663 0
0.666666 0.83333 0
0.624999 0.791662 0
0.625 0.83333 0
0.708333 0.791663 0
0.75 0.791663 0
0.708333 0.83333 0
0.75 0.83333 0
0.666666 0.791663 0
0.708333 0.791663 0
0.666666 0.83333 0
0.708333 0.83333 0
0.666666 0.749995 0
0.708333 0.749996 0
0.666666 0.791663 0
0.708333 0.791663 0
0.708333 0.749996 0
0.749999 0.749996 0
0.708333 0.791663 0
0.75 0.791663 0
0.125 0.124999 0
0.125 0.104166 0
0.145833 0.124999 0
0.145833 0.104165 0
0.125 0.104166 0
0.125 0.0833324 0
0.145833 0.104165 0
0.145833 0.0833323 0
0.145833 0.124999 0
0.145833 0.104165 0
0.166666 0.124998 0
0.166666 0.104165 0
0.145833 0.104165 0
0.145833 0.0833323 0
0.166666 0.104165 0
0.166667 0.0833322 0
0.125 0.166665 0
0.125 0.145832 0
[...]
POINT_DATA 15780
SCALARS solution_0 double 1
LOOKUP_TABLE default
-0.0225879 -0.0264424 0.0163692 0.0126912 -0.0192943 -0.0225879 0.0193483 0.0163692 -0.0573825 -0.0607649 -0.0192943 -0.0225879 -0.0607649 -0.064616 -0.0225879 -0.0264424 0.048548 0.0424588 0.0909482 0.0845271 0.0531452 0.048548 0.0954255 0.0909482 0.0126912 0.00808552 0.0531452 0.048548 0.00808552 0.00238211 0.048548 0.0424588 -0.0264424 -0.0309558 0.0126912 0.00808552 -0.064616 -0.0689071 -0.0264424 -0.0309558 -0.0689071 -0.0735995 -0.0309558 -0.0362031 -0.0309558 -0.0362031 0.00808552 0.00238211 -0.10214 -0.139701 -0.106009 -0.142952 -0.106009 -0.142952 -0.110049 -0.146369 -0.0689071 -0.106009 -0.0735995 -0.110049 -0.064616 -0.10214 -0.0689071 -0.106009 -0.178871 -0.18142 -0.139701 -0.142952 -0.22173 -0.223987 -0.178871 -0.18142 -0.223987 -0.227229 -0.18142 -0.184642 -0.18142 -0.184642 -0.142952 -0.146369 -0.0607649 -0.0985906 -0.064616 -0.10214 -0.0573825 -0.0954997 -0.0607649 -0.0985906 -0.0954997 -0.134585 -0.0985906 -0.136831 -0.0985906 -0.136831 -0.10214 -0.139701 -0.223987 -0.270792 -0.227229 -0.274584 -0.22173 -0.268114 -0.223987 -0.270792 -0.123157 -0.160085 -0.130158 -0.169381 -0.0889454 -0.123157 -0.0951894 -0.130158 -0.0836714 -0.118277 -0.0889454 -0.123157 -0.118277 -0.15425 -0.123157 -0.160085 0.0193483 0.0163692 0.0589328 0.0565111 0.0163692 0.0126912 0.0565111 0.0531452 0.0565111 0.0531452 0.0982844 0.0954255 0.0589328 0.0565111 0.0998304 0.0982844 0.141958 0.139951 0.186991 0.186474 0.142024 0.141958 0.184574 0.186991 0.0998304 0.0982844 0.142024 0.141958 0.0982844 0.0954255 0.141958 0.139951 -0.219975 -0.22173 -0.176986 -0.178871 -0.176986 -0.178871 -0.136831 -0.139701 -0.175149 -0.176986 -0.134585 -0.136831 0.023832 0.061524 0.025056 0.0610765 0.061524 0.0991021 0.0610765 0.096004 0.0758741 0.119476 0.0845271 0.129078 0.0647695 0.10659 0.0758741 0.119476 0.10659 0.150763 0.119476 0.165557 0.119476 0.165557 0.129078 0.176122 -0.175945 -0.0945102 -0.169449 -0.0909408 -0.0945102 0 -0.0909408 0 0.046143 0.0778421 0.0699497 0.106824 0.01612 0.046143 0.0348977 0.0699497 -0.118277 -0.114111 -0.15425 -0.150066 -0.0836714 -0.0785822 -0.118277 -0.114111 -0.0785822 -0.0735995 -0.114111 -0.110049 -0.114111 -0.110049 -0.150066 -0.146369 0.0510991 0.0348977 0.0901286 0.0699497 0.0901286 0.0699497 0.131249 0.106824 0.10659 0.0901286 0.150763 0.131249 0.0647695 0.0510991 0.10659 0.0901286 0.184574 0.225674 0.179145 0.215467 -0.161019 -0.141959 -0.0819211 -0.0687635 -0.141959 -0.117785 -0.0687635 -0.0534956 -0.0687635 -0.0534956 0 0 -0.0819211 -0.0687635 0 0 0.184574 0.186991 0.225674 0.231544 0.186991 0.186474 0.231544 0.23336 0.0252251 0.0140832 0.0647695 0.0510991 -0.0124329 -0.0212662 0.0252251 0.0140832 -0.0212662 -0.0309488 0.0140832 0.00140348 0.0140832 0.00140348 0.0510991 0.0348977 -0.0131156 0.01612 0.00140348 0.0348977 -0.0422199 -0.0131156 -0.0309488 0.00140348 -0.0954997 -0.0930044 -0.134585 -0.132249 -0.0573825 -0.0545789 -0.0954997 -0.0930044 -0.0421461 -0.00448252 -0.0362031 0.00238211 -0.0785822 -0.0421461 -0.0735995 -0.0362031 -0.0836714 -0.0486144 -0.0785822 -0.0421461 -0.0486144 -0.0124329 -0.0421461 -0.00448252 -0.231823 -0.188505 -0.227229 -0.184642 -0.193636 -0.15425 -0.188505 -0.150066 -0.188505 -0.150066 -0.184642 -0.146369 -0.0573825 -0.0192943 -0.0545789 -0.0163916 -0.0192943 0.0193483 -0.0163916 0.0218051 -0.0163916 0.0218051 -0.0139765 0.023832 -0.0545789 -0.0163916 -0.0516968 -0.0139765 0.0589328 0.0998304 0.0606319 0.100162 0.0606319 0.100162 0.061524 0.0991021 0.0218051 0.0606319 0.023832 0.061524 0.0193483 0.0589328 0.0218051 0.0606319 -0.0486144 -0.055413 -0.0124329 -0.0212662 -0.0836714 -0.0889454 -0.0486144 -0.055413 -0.0889454 -0.0951894 -0.055413 -0.0628444 -0.055413 -0.0628444 -0.0212662 -0.0309488 0.142024 0.184574 0.140133 0.179145 0.140133 0.179145 0.135762 0.170484 0.100162 0.140133 0.0991021 0.135762 0.0998304 0.142024 0.100162 0.140133 -0.0124329 0.0252251 -0.00448252 0.0347064 0.0252251 0.0647695 0.0347064 0.0758741 0.0347064 0.0758741 0.0424588 0.0845271 -0.00448252 0.0347064 0.00238211 0.0424588 0.0954255 0.0909482 0.139951 0.135775 0.0909482 0.0845271 0.135775 0.129078 0.135775 0.129078 0.182944 0.176122 0.139951 0.135775 0.186474 0.182944 -0.0139765 0.023832 -0.0115497 0.025056 -0.161019 -0.0819211 -0.17276 -0.0911744 -0.0819211 0 -0.0911744 0 -0.0911744 0 -0.0945102 0 -0.17276 -0.0911744 -0.175945 -0.0945102 0.231102 0.224518 0.277156 0.271535 0.186474 0.182944 0.23336 0.231102 0.182944 0.176122 0.231102 0.224518 0.213147 0.25991 0.224518 0.271535 0.165557 0.213147 0.176122 0.224518 0.150763 0.196541 0.165557 0.213147 0.196541 0.242331 0.213147 0.25991 0.174152 0.145741 0.218399 0.187858 0.196541 0.174152 0.242331 0.218399 0.150763 0.131249 0.196541 0.174152 0.131249 0.106824 0.174152 0.145741 -0.0280391 -0.0189767 -0.0382828 -0.0268905 -0.0189767 -0.0109922 -0.0268905 -0.0166568 -0.0382828 -0.0268905 -0.0501717 -0.0363457 -0.0268905 -0.0166568 -0.0363457 -0.023699 -0.0475205 -0.0377137 -0.0621847 -0.0502453 -0.0377137 -0.0280391 -0.0502453 -0.0382828 -0.0621847 -0.0502453 -0.0784914 -0.0644575 -0.0502453 -0.0382828 -0.0644575 -0.0501717 -0.0234187 -0.0177906 -0.0345874 -0.0268981 -0.0177906 -0.0124238 -0.0268981 -0.0194338 -0.0345874 -0.0268981 -0.0475205 -0.0377137 -0.0268981 -0.0194338 -0.0377137 -0.0280391 -0.0124238 -0.00759668 -0.0194338 -0.0125701 -0.00759668 -0.00357193 -0.0125701 -0.00666219 -0.0194338 -0.0125701 -0.0280391 -0.0189767 -0.0125701 -0.00666219 -0.0189767 -0.0109922 -0.14479 -0.123654 -0.131247 -0.110953 -0.123654 -0.103166 -0.110953 -0.0915964 -0.131247 -0.110953 -0.115199 -0.0962578 -0.110953 -0.0915964 -0.0962578 -0.0784914 -0.187204 -0.166124 -0.172941 -0.152059 -0.166124 -0.14479 -0.152059 -0.131247 -0.172941 -0.152059 -0.155054 -0.134941 -0.152059 -0.131247 -0.134941 -0.115199 -0.202785 -0.183014 -0.197264 -0.176565 -0.183014 -0.162281 -0.176565 -0.155263 -0.197264 -0.176565 -0.187204 -0.166124 -0.176565 -0.155263 -0.166124 -0.14479 -0.162281 -0.141045 -0.155263 -0.133816 -0.141045 -0.119787 -0.133816 -0.112692 -0.155263 -0.133816 -0.14479 -0.123654 -0.133816 -0.112692 -0.123654 -0.103166 0.192985 0.171576 0.194093 0.175027 0.171576 0.148979 0.175027 0.154796 0.194093 0.175027 0.192008 0.175281 0.175027 0.154796 0.175281 0.157402 0.231296 0.212953 0.227898 0.21177 0.212953 0.192985 0.21177 0.194093 0.227898 0.21177 0.2213 0.207391 0.21177 0.194093 0.207391 0.192008 0.231758 0.208897 0.231502 0.210974 0.208897 0.184348 0.210974 0.188759 0.231502 0.210974 0.231296 0.212953 0.210974 0.188759 0.212953 0.192985 0.184348 0.158313 0.188759 0.165056 0.158313 0.131078 0.165056 0.140143 0.188759 0.165056 0.192985 0.171576 0.165056 0.140143 0.171576 0.148979 -0.206873 -0.169497 -0.180821 -0.145006 -0.169497 -0.132739 -0.145006 -0.110926 -0.180821 -0.145006 -0.153287 -0.12015 -0.145006 -0.110926 -0.12015 -0.0894941 -0.251593 -0.21396 -0.230664 -0.192703 -0.21396 -0.17434 -0.192703 -0.154116 -0.230664 -0.192703 -0.206873 -0.169497 -0.192703 -0.154116 -0.169497 -0.132739 -0.17434 -0.135699 -0.154116 -0.117408 -0.135699 -0.100186 -0.117408 -0.0843372 -0.154116 -0.117408 -0.132739 -0.0986256 -0.117408 -0.0843372 -0.0986256 -0.0684802 -0.132739 -0.0986256 -0.110926 -0.0800063 -0.0986256 -0.0684802 -0.0800063 -0.0531778 -0.110926 -0.0800063 -0.0894941 -0.0622306 -0.0800063 -0.0531778 -0.0622306 -0.0389717 -0.268114 -0.290886 -0.269453 -0.292442 -0.290886 -0.310831 -0.292442 -0.312925 -0.269453 -0.292442 -0.270792 -0.294288 -0.292442 -0.312925 -0.294288 -0.314839 -0.270792 -0.294288 -0.272688 -0.296171 -0.294288 -0.314839 -0.296171 -0.316608 -0.272688 -0.296171 -0.274584 -0.298487 -0.296171 -0.316608 -0.298487 -0.318229 -0.065641 -0.0569808 -0.0837246 -0.0735228 -0.0569808 -0.0475205 -0.0735228 -0.0621847 -0.0837246 -0.0735228 -0.103166 -0.0915964 -0.0735228 -0.0621847 -0.0915964 -0.0784914 -0.0790211 -0.0730977 -0.0989741 -0.0923305 -0.0730977 -0.065641 -0.0923305 -0.0837246 -0.0989741 -0.0923305 -0.119787 -0.112692 -0.0923305 -0.0837246 -0.112692 -0.103166 -0.0429099 -0.0390153 -0.0602521 -0.0552642 -0.0390153 -0.0343075 -0.0552642 -0.0491243 -0.0602521 -0.0552642 -0.0790211 -0.0730977 -0.0552642 -0.0491243 -0.0730977 -0.065641 -0.0343075 -0.0290196 -0.0491243 -0.0421195 -0.0290196 -0.0234187 -0.0421195 -0.0345874 -0.0491243 -0.0421195 -0.065641 -0.0569808 -0.0421195 -0.0345874 -0.0569808 -0.0475205 -0.0822582 -0.0783144 -0.100616 -0.0957248 -0.0783144 -0.0732442 -0.0957248 -0.089448 -0.100616 -0.0957248 -0.11876 -0.112742 -0.0957248 -0.089448 -0.112742 -0.1051 -0.045586 -0.0431725 -0.0638734 -0.0607419 -0.0431725 -0.0401589 -0.0607419 -0.0567473 -0.0638734 -0.0607419 -0.0822582 -0.0783144 -0.0607419 -0.0567473 -0.0783144 -0.0732442 -0.0401589 -0.0364557 -0.0567473 -0.0518098 -0.0364557 -0.0320293 -0.0518098 -0.0459243 -0.0567473 -0.0518098 -0.0732442 -0.0669838 -0.0518098 -0.0459243 -0.0669838 -0.0595684 -0.0732442 -0.0669838 -0.089448 -0.0817547 -0.0669838 -0.0595684 -0.0817547 -0.072731 -0.089448 -0.0817547 -0.1051 -0.0958517 -0.0817547 -0.072731 -0.0958517 -0.0851447 0.131078 0.103039 0.140143 0.114396 0.103039 0.0747278 0.114396 0.0883201 0.140143 0.114396 0.148979 0.12553 0.114396 0.0883201 0.12553 0.10167 0.0747278 0.04685 0.0883201 0.0625791 0.04685 0.02032 0.0625791 0.0380351 0.0883201 0.0625791 0.10167 0.0779681 0.0625791 0.0380351 0.0779681 0.0551645 0.10167 0.0779681 0.112065 0.0903859 0.0779681 0.0551645 0.0903859 0.0692316 0.112065 0.0903859 0.119206 0.0995305 0.0903859 0.0692316 0.0995305 0.0800049 0.148979 0.12553 0.154796 0.133687 0.12553 0.10167 0.133687 0.112065 0.154796 0.133687 0.157402 0.138612 0.133687 0.112065 0.138612 0.119206 0 0 -0.00270894 -0.00073914 0 0 -0.00073914 0.000431391 -0.00270894 -0.00073914 -0.00767883 -0.00142635 -0.00073914 0.000431391 -0.00142635 0.00256982 -0.00767883 -0.00142635 -0.00978047 0.000485395 -0.00142635 0.00256982 0.000485395 0.00758865 -0.00978047 0.000485395 -0.00649874 0.00647162 0.000485395 0.00758865 0.00647162 0.0162134 -0.21875 -0.219282 -0.196761 -0.197449 -0.219282 -0.219975 -0.197449 -0.19848 -0.196761 -0.197449 -0.175149 -0.176067 -0.197449 -0.19848 -0.176067 -0.176986 -0.0418622 -0.0515275 -0.0511256 -0.0625663 -0.0515275 -0.0604474 -0.0625663 -0.0732342 -0.0511256 -0.0625663 -0.0595684 -0.072731 -0.0625663 -0.0732342 -0.072731 -0.0851447 -0.0211851 -0.0316783 -0.0269054 -0.0391637 -0.0316783 -0.0418622 -0.0391637 -0.0511256 -0.0269054 -0.0391637 -0.0320293 -0.0459243 -0.0391637 -0.0511256 -0.0459243 -0.0595684 -0.00911128 -0.0157761 -0.0151008 -0.023729 -0.0157761 -0.0222305 -0.023729 -0.0320751 -0.0151008 -0.023729 -0.0211851 -0.0316783 -0.023729 -0.0320751 -0.0316783 -0.0418622 -0.0222305 -0.0283126 -0.0320751 -0.0399512 -0.0283126 -0.0338581 -0.0399512 -0.0471608 -0.0320751 -0.0399512 -0.0418622 -0.0515275 -0.0399512 -0.0471608 -0.0515275 -0.0604474 0.262667 0.247891 0.255143 0.242374 0.247891 0.231296 0.242374 0.227898 0.255143 0.242374 0.244421 0.233649 0.242374 0.227898 0.233649 0.2213 0.286678 0.275596 0.275549 0.266199 0.275596 0.262667 0.266199 0.255143 0.275549 0.266199 0.261285 0.253624 0.266199 0.255143 0.253624 0.244421 0.304419 0.289144 0.294818 0.281886 0.289144 0.271938 0.281886 0.267015 0.294818 0.281886 0.286678 0.275596 0.281886 0.267015 0.275596 0.262667 0.271938 0.252798 0.267015 0.250209 0.252798 0.231758 0.250209 0.231502 0.267015 0.250209 0.262667 0.247891 0.250209 0.231502 0.247891 0.231296 -0.173793 -0.152848 -0.172804 -0.15196 -0.152848 -0.132249 -0.15196 -0.131271 -0.172804 -0.15196 -0.171282 -0.150697 -0.15196 -0.131271 -0.150697 -0.130255 -0.216665 -0.195217 -0.214665 -0.193878 -0.195217 -0.173793 -0.193878 -0.172804 -0.214665 -0.193878 -0.211595 -0.191757 -0.193878 -0.172804 -0.191757 -0.171282 -0.21875 -0.196761 -0.217921 -0.196108 -0.196761 -0.175149 -0.196108 -0.174419 -0.217921 -0.196108 -0.216665 -0.195217 -0.196108 -0.174419 -0.195217 -0.173793 -0.175149 -0.154867 -0.174419 -0.153681 -0.154867 -0.134585 -0.153681 -0.133417 -0.174419 -0.153681 -0.173793 -0.152848 -0.153681 -0.133417 -0.152848 -0.132249 0.0452319 0.0590974 0.0619684 0.0772288 0.0590974 0.0741758 0.0772288 0.0936084 0.0619684 0.0772288 0.0778421 0.0945148 0.0772288 0.0936084 0.0945148 0.112178 0.0741758 0.0911633 0.0936084 0.111569 0.0911633 0.111256 0.111569 0.132222 0.0936084 0.111569 0.112178 0.131033 0.111569 0.132222 0.131033 0.151876 0.112178 0.131033 0.129622 0.149283 0.131033 0.151876 0.149283 0.170482 0.129622 0.149283 0.145741 0.1668 0.149283 0.170482 0.1668 0.187858 0.0778421 0.0945148 0.0923329 0.111049 0.0945148 0.112178 0.111049 0.129622 0.0923329 0.111049 0.106824 0.126282 0.111049 0.129622 0.126282 0.145741 0.0610765 0.0785402 0.0603123 0.0770756 0.0785402 0.096004 0.0770756 0.0934163 0.0603123 0.0770756 0.058803 0.0747232 0.0770756 0.0934163 0.0747232 0.0899329 0.025056 0.0430662 0.0254762 0.0429975 0.0430662 0.0610765 0.0429975 0.0603123 0.0254762 0.0429975 0.0253799 0.0423246 0.0429975 0.0603123 0.0423246 0.058803 -0.21875 -0.217921 -0.241075 -0.239668 -0.217921 -0.216665 -0.239668 -0.237577 -0.241075 -0.239668 -0.262657 -0.260264 -0.239668 -0.237577 -0.260264 -0.256906 -0.216665 -0.214665 -0.237577 -0.234479 -0.214665 -0.211595 -0.234479 -0.230015 -0.237577 -0.234479 -0.256906 -0.252251 -0.234479 -0.230015 -0.252251 -0.245965 -0.256906 -0.252251 -0.273268 -0.266651 -0.252251 -0.245965 -0.266651 -0.258209 -0.273268 -0.266651 -0.285031 -0.276218 -0.266651 -0.258209 -0.276218 -0.265481 -0.262657 -0.260264 -0.28217 -0.278337 -0.260264 -0.256906 -0.278337 -0.273268 -0.28217 -0.278337 -0.297724 -0.292116 -0.278337 -0.273268 -0.292116 -0.285031 -0.00305062 -0.00157 -0.00696504 -0.0039623 -0.00157 -0.000455006 -0.0039623 -0.00156505 -0.00696504 -0.0039623 -0.0124238 -0.00759668 -0.0039623 -0.00156505 -0.00759668 -0.00357193 -0.00669861 -0.00479308 -0.0140637 -0.0103944 -0.00479308 -0.00305062 -0.0103944 -0.00696504 -0.0140637 -0.0103944 -0.0234187 -0.0177906 -0.0103944 -0.00696504 -0.0177906 -0.0124238 0 0 -0.00173515 -0.00119625 0 0 -0.00119625 -0.000713905 -0.00173515 -0.00119625 -0.00669861 -0.00479308 -0.00119625 -0.000713905 -0.00479308 -0.00305062 0 0 -0.000713905 -0.0003159 0 0 -0.0003159 -3.28591e-05 -0.000713905 -0.0003159 -0.00305062 -0.00157 -0.0003159 -3.28591e-05 -0.00157 -0.000455006 -0.00649874 0.00647162 0.00220577 0.0170145 0.00647162 0.0162134 0.0170145 0.0284325 0.00220577 0.0170145 0.0161438 0.0316069 0.0170145 0.0284325 0.0316069 0.0436962 0.0161438 0.0316069 0.0341879 0.0493397 0.0316069 0.0436962 0.0493397 0.0611634 0.0341879 0.0493397 0.0551645 0.0692316 0.0493397 0.0611634 0.0692316 0.0800049 -0.023828 -0.00292088 -0.00370914 0.0157713 -0.00292088 0.0161438 0.0157713 0.0341879 -0.00370914 0.0157713 0.02032 0.0380351 0.0157713 0.0341879 0.0380351 0.0551645 -0.0455152 -0.0238781 -0.0384206 -0.0166165 -0.0238781 -0.00649874 -0.0166165 0.00220577 -0.0384206 -0.0166165 -0.023828 -0.00292088 -0.0166165 0.00220577 -0.00292088 0.0161438 -0.0909408 -0.0454704 -0.0852571 -0.0451472 -0.0454704 0 -0.0451472 0 -0.0852571 -0.0451472 -0.0788579 -0.0414677 -0.0451472 0 -0.0414677 0 -0.169449 -0.130195 -0.162606 -0.123884 -0.130195 -0.0909408 -0.123884 -0.0852571 -0.162606 -0.123884 -0.153574 -0.115441 -0.123884 -0.0852571 -0.115441 -0.0788579 -0.239918 -0.244575 -0.216201 -0.220645 -0.244575 -0.24955 -0.220645 -0.225758 -0.216201 -0.220645 -0.193636 -0.197836 -0.220645 -0.225758 -0.197836 -0.202496 -0.202496 -0.208053 -0.180697 -0.185419 -0.208053 -0.21448 -0.185419 -0.191734 -0.180697 -0.185419 -0.160085 -0.164733 -0.185419 -0.191734 -0.164733 -0.169381 -0.272353 -0.242282 -0.24815 -0.21616 -0.242282 -0.206873 -0.21616 -0.180821 -0.24815 -0.21616 -0.220095 -0.187381 -0.21616 -0.180821 -0.187381 -0.153287 -0.211595 -0.191757 -0.20709 -0.188503 -0.191757 -0.171282 -0.188503 -0.168889 -0.20709 -0.188503 -0.200813 -0.183751 -0.188503 -0.168889 -0.183751 -0.165291 -0.171282 -0.150697 -0.168889 -0.148845 -0.150697 -0.130255 -0.148845 -0.128724 -0.168889 -0.148845 -0.165291 -0.146059 -0.148845 -0.128724 -0.146059 -0.126498 -0.165291 -0.146059 -0.160147 -0.142013 -0.146059 -0.126498 -0.142013 -0.123271 -0.160147 -0.142013 -0.153189 -0.136412 -0.142013 -0.123271 -0.136412 -0.11876 -0.200813 -0.183751 -0.192501 -0.177186 -0.183751 -0.165291 -0.177186 -0.160147 -0.192501 -0.177186 -0.182015 -0.168591 -0.177186 -0.160147 -0.168591 -0.153189 -0.251593 -0.269285 -0.21396 -0.232708 -0.269285 -0.283855 -0.232708 -0.248726 -0.21396 -0.232708 -0.17434 -0.192825 -0.232708 -0.248726 -0.192825 -0.209094 -0.209094 -0.222905 -0.168542 -0.182198 -0.222905 -0.234179 -0.182198 -0.193637 -0.168542 -0.182198 -0.129743 -0.142538 -0.182198 -0.193637 -0.142538 -0.153574 -0.17434 -0.192825 -0.135699 -0.152913 -0.192825 -0.209094 -0.152913 -0.168542 -0.135699 -0.152913 -0.100186 -0.115485 -0.152913 -0.168542 -0.115485 -0.129743 0 0 -3.28591e-05 8.37885e-05 0 0 8.37885e-05 -3.35017e-05 -3.28591e-05 8.37885e-05 -0.000455006 0.000174855 8.37885e-05 -3.35017e-05 0.000174855 8.11757e-05 0 0 -3.35017e-05 -0.00125415 0 0 -0.00125415 0 -3.35017e-05 -0.00125415 8.11757e-05 -0.00043417 -0.00125415 0 -0.00043417 0 8.11757e-05 -0.00043417 0.000757336 0.000671208 -0.00043417 0 0.000671208 0 0.000757336 0.000671208 0.00117533 0.00152267 0.000671208 0 0.00152267 0 -0.000455006 0.000174855 -0.00156505 4.16282e-05 0.000174855 8.11757e-05 4.16282e-05 0.000757336 -0.00156505 4.16282e-05 -0.00357193 -0.000582057 4.16282e-05 0.000757336 -0.000582057 0.00117533 -0.0509827 -0.0692695 -0.0316345 -0.0459314 -0.0692695 -0.0894941 -0.0459314 -0.0622306 -0.0316345 -0.0459314 -0.0156388 -0.0263362 -0.0459314 -0.0622306 -0.0263362 -0.0389717 -0.0223133 -0.0352083 -0.0103815 -0.0197175 -0.0352083 -0.0509827 -0.0197175 -0.0316345 -0.0103815 -0.0197175 -0.000845667 -0.00711367 -0.0197175 -0.0316345 -0.00711367 -0.0156388 -0.0526149 -0.0740884 -0.0363846 -0.0533386 -0.0740884 -0.0987118 -0.0533386 -0.0734004 -0.0363846 -0.0533386 -0.0223133 -0.0352083 -0.0533386 -0.0734004 -0.0352083 -0.0509827 -0.0987118 -0.125504 -0.0734004 -0.095953 -0.125504 -0.153287 -0.095953 -0.12015 -0.0734004 -0.095953 -0.0509827 -0.0692695 -0.095953 -0.12015 -0.0692695 -0.0894941 -0.104533 -0.143947 -0.0871723 -0.123612 -0.143947 -0.183665 -0.123612 -0.162296 -0.0871723 -0.123612 -0.0705924 -0.102867 -0.123612 -0.162296 -0.102867 -0.138862 -0.0402464 -0.0690004 -0.0318106 -0.0559479 -0.0690004 -0.104533 -0.0559479 -0.0871723 -0.0318106 -0.0559479 -0.0243836 -0.0441831 -0.0559479 -0.0871723 -0.0441831 -0.0705924 -0.0598149 -0.0963813 -0.0496865 -0.0827696 -0.0963813 -0.137625 -0.0827696 -0.121659 -0.0496865 -0.0827696 -0.0402464 -0.0690004 -0.0827696 -0.121659 -0.0690004 -0.104533 0.207242 0.224336 0.176319 0.194671 0.224336 0.23986 0.194671 0.211618 0.176319 0.194671 0.151876 0.170482 0.194671 0.211618 0.170482 0.187858 -0.200217 -0.183599 -0.2037 -0.185328 -0.183599 -0.165367 -0.185328 -0.165649 -0.2037 -0.185328 -0.202785 -0.183014 -0.185328 -0.165649 -0.183014 -0.162281 -0.182015 -0.16937 -0.192786 -0.178126 -0.16937 -0.15474 -0.178126 -0.16162 -0.192786 -0.178126 -0.200217 -0.183599 -0.178126 -0.16162 -0.183599 -0.165367 -0.15474 -0.138438 -0.16162 -0.143645 -0.138438 -0.12088 -0.143645 -0.124658 -0.16162 -0.143645 -0.165367 -0.145945 -0.143645 -0.124658 -0.145945 -0.125812 -0.165367 -0.145945 -0.165649 -0.14511 -0.145945 -0.125812 -0.14511 -0.124197 -0.165649 -0.14511 -0.162281 -0.141045 -0.14511 -0.124197 -0.141045 -0.119787 -0.00565758 0.00683186 0.00573115 0.0194715 0.00683186 0.0193688 0.0194715 0.0331993 0.00573115 0.0194715 0.01612 0.0311315 0.0194715 0.0331993 0.0311315 0.046143 0.0193688 0.0321135 0.0331993 0.0474631 0.0321135 0.0452319 0.0474631 0.0619684 0.0331993 0.0474631 0.046143 0.0619925 0.0474631 0.0619684 0.0619925 0.0778421 0.00070906 0.00259346 -0.000402238 0.00119516 0.00259346 0.00481491 0.00119516 0.00290659 -0.000402238 0.00119516 0 0 0.00119516 0.00290659 0 0 0 4.79104e-05 0 -0.00138122 4.79104e-05 0.00070906 -0.00138122 -0.000402238 0 -0.00138122 0 0 -0.