# vtk DataFile Version 3.0
#This file was generated by the deal.II library on 2020/12/25 at 19:41:32
ASCII
DATASET UNSTRUCTURED_GRID

POINTS 44772 double
0.458332 0.541659 0
0.499999 0.541659 0
0.458332 0.583326 0
0.499999 0.583326 0
0.416666 0.541659 0
0.458332 0.541659 0
0.416666 0.583326 0
0.458332 0.583326 0
0.416666 0.499992 0
0.458332 0.499992 0
0.416666 0.541659 0
0.458332 0.541659 0
0.458332 0.499992 0
0.499999 0.499992 0
0.458332 0.541659 0
0.499999 0.541659 0
0.541666 0.624993 0
0.583332 0.624993 0
0.541666 0.66666 0
0.583332 0.66666 0
0.499999 0.624993 0
0.541666 0.624993 0
0.499999 0.66666 0
0.541666 0.66666 0
0.499999 0.583326 0
0.541666 0.583326 0
0.499999 0.624993 0
0.541666 0.624993 0
0.541666 0.583326 0
0.583332 0.583326 0
0.541666 0.624993 0
0.583332 0.624993 0
0.499999 0.541659 0
0.541666 0.541659 0
0.499999 0.583326 0
0.541666 0.583326 0
0.499999 0.499992 0
0.541666 0.499992 0
0.499999 0.541659 0
0.541666 0.541659 0
0.541666 0.499992 0
0.583332 0.499992 0
0.541666 0.541659 0
0.583332 0.541659 0
0.541666 0.541659 0
0.583332 0.541659 0
0.541666 0.583326 0
0.583332 0.583326 0
0.499999 0.458326 0
0.499999 0.416659 0
0.541666 0.458326 0
0.541666 0.416659 0
0.541666 0.458326 0
0.541666 0.416659 0
0.583332 0.458326 0
0.583332 0.416659 0
0.541666 0.499992 0
0.541666 0.458326 0
0.583332 0.499992 0
0.583332 0.458326 0
0.499999 0.499992 0
0.499999 0.458326 0
0.541666 0.499992 0
0.541666 0.458326 0
0.499999 0.374993 0
0.541666 0.374993 0
0.499999 0.416659 0
0.541666 0.416659 0
0.499999 0.333326 0
0.541666 0.333326 0
0.499999 0.374993 0
0.541666 0.374993 0
0.541666 0.333326 0
0.583332 0.333327 0
0.541666 0.374993 0
0.583332 0.374993 0
0.541666 0.374993 0
0.583332 0.374993 0
0.541666 0.416659 0
0.583332 0.416659 0
0.458332 0.499992 0
0.458332 0.458326 0
0.499999 0.499992 0
0.499999 0.458326 0
0.416666 0.499992 0
0.416666 0.458326 0
0.458332 0.499992 0
0.458332 0.458326 0
0.416666 0.458326 0
0.416666 0.416659 0
0.458332 0.458326 0
0.458332 0.416659 0
0.458332 0.458326 0
0.458332 0.416659 0
0.499999 0.458326 0
0.499999 0.416659 0
0.541666 0.333326 0
0.541666 0.29166 0
0.583332 0.333327 0
0.583333 0.29166 0
0.499999 0.333326 0
0.499999 0.29166 0
0.541666 0.333326 0
0.541666 0.29166 0
0.708333 0.458327 0
0.708333 0.41666 0
0.749999 0.458328 0
0.749999 0.416661 0
0.708332 0.499994 0
0.708333 0.458327 0
0.749999 0.499994 0
0.749999 0.458328 0
0.666666 0.499993 0
0.666666 0.458327 0
0.708332 0.499994 0
0.708333 0.458327 0
0.666666 0.458327 0
0.666666 0.41666 0
0.708333 0.458327 0
0.708333 0.41666 0
0.416666 0.583326 0
0.458332 0.583326 0
0.416666 0.624993 0
0.458332 0.624993 0
0.458332 0.583326 0
0.499999 0.583326 0
0.458332 0.624993 0
0.499999 0.624993 0
0.458332 0.624993 0
0.499999 0.624993 0
0.458332 0.66666 0
0.499999 0.66666 0
0.416666 0.624993 0
0.458332 0.624993 0
0.416666 0.66666 0
0.458332 0.66666 0
0.458333 0.708327 0
0.499999 0.708327 0
0.458333 0.749994 0
0.499999 0.749994 0
0.416666 0.708327 0
0.458333 0.708327 0
0.416666 0.749994 0
0.458333 0.749994 0
0.416666 0.66666 0
0.458332 0.66666 0
0.416666 0.708327 0
0.458333 0.708327 0
0.458332 0.66666 0
0.499999 0.66666 0
0.458333 0.708327 0
0.499999 0.708327 0
0.458332 0.333326 0
0.499999 0.333326 0
0.458332 0.374993 0
0.499999 0.374993 0
0.458332 0.374993 0
0.499999 0.374993 0
0.458332 0.416659 0
0.499999 0.416659 0
0.416666 0.374993 0
0.458332 0.374993 0
0.416666 0.416659 0
0.458332 0.416659 0
0.333332 0.583326 0
0.333332 0.624994 0
0.291666 0.583327 0
0.291666 0.624994 0
0.333332 0.624994 0
0.333333 0.666661 0
0.291666 0.624994 0
0.291666 0.666661 0
0.624999 0.66666 0
0.624999 0.708328 0
0.583332 0.66666 0
0.583333 0.708327 0
0.666666 0.666661 0
0.666666 0.708328 0
0.624999 0.66666 0
0.624999 0.708328 0
0.666666 0.708328 0
0.666666 0.749995 0
0.624999 0.708328 0
0.624999 0.749995 0
0.624999 0.708328 0
0.624999 0.749995 0
0.583333 0.708327 0
0.583333 0.749995 0
0.5 0.0833311 0
0.5 0.0416655 0
0.541666 0.0833311 0
0.541667 0.0416655 0
0.5 0.0416655 0
0.5 0 0
0.541667 0.0416655 0
0.541667 0 0
0.791666 0.70833 0
0.791666 0.749997 0
0.749999 0.708329 0
0.749999 0.749996 0
0.791666 0.666663 0
0.791666 0.70833 0
0.749999 0.666662 0
0.749999 0.708329 0
0.666666 0.458327 0
0.624999 0.458326 0
0.666666 0.41666 0
0.624999 0.41666 0
0.666666 0.499993 0
0.624999 0.499993 0
0.666666 0.458327 0
0.624999 0.458326 0
0.624999 0.499993 0
0.583332 0.499992 0
0.624999 0.458326 0
0.583332 0.458326 0
0.624999 0.458326 0
0.583332 0.458326 0
0.624999 0.41666 0
0.583332 0.416659 0
0.708333 0.666661 0
0.749999 0.666662 0
0.708333 0.708328 0
0.749999 0.708329 0
0.708333 0.708328 0
0.749999 0.708329 0
0.708333 0.749996 0
0.749999 0.749996 0
0.666666 0.708328 0
0.708333 0.708328 0
0.666666 0.749995 0
0.708333 0.749996 0
0.666666 0.666661 0
0.708333 0.666661 0
0.666666 0.708328 0
0.708333 0.708328 0
0.416666 0.749994 0
0.416666 0.791662 0
0.374999 0.749995 0
0.374999 0.791662 0
0.416666 0.0833311 0
0.375 0.0833312 0
0.416667 0.0416656 0
0.375 0.0416656 0
0.375 0.0833312 0
0.333333 0.0833314 0
0.375 0.0416656 0
0.333333 0.0416657 0
0.375 0.0416656 0
0.333333 0.0416657 0
0.375 0 0
0.333333 0 0
0.416667 0.0416656 0
0.375 0.0416656 0
0.416667 0 0
0.375 0 0
0.416666 0.749994 0
0.458333 0.749994 0
0.416666 0.791662 0
0.458333 0.791662 0
0.458333 0.749994 0
0.499999 0.749994 0
0.458333 0.791662 0
0.499999 0.791662 0
0.666666 0.624994 0
0.708333 0.624994 0
0.666666 0.666661 0
0.708333 0.666661 0
0.666666 0.583327 0
0.708333 0.583327 0
0.666666 0.624994 0
0.708333 0.624994 0
0.708333 0.583327 0
0.749999 0.583328 0
0.708333 0.624994 0
0.749999 0.624995 0
0.708333 0.624994 0
0.749999 0.624995 0
0.708333 0.666661 0
0.749999 0.666662 0
0.791666 0.624996 0
0.791666 0.666663 0
0.749999 0.624995 0
0.749999 0.666662 0
0.791666 0.583329 0
0.791666 0.624996 0
0.749999 0.583328 0
0.749999 0.624995 0
0.416666 0.458326 0
0.374999 0.458326 0
0.416666 0.416659 0
0.374999 0.416659 0
0.416666 0.499992 0
0.374999 0.499993 0
0.416666 0.458326 0
0.374999 0.458326 0
0.624999 0.54166 0
0.624999 0.583326 0
0.583332 0.541659 0
0.583332 0.583326 0
0.624999 0.499993 0
0.624999 0.54166 0
0.583332 0.499992 0
0.583332 0.541659 0
0.666666 0.499993 0
0.666666 0.54166 0
0.624999 0.499993 0
0.624999 0.54166 0
0.666666 0.54166 0
0.666666 0.583327 0
0.624999 0.54166 0
0.624999 0.583326 0
0.624999 0.333327 0
0.624999 0.374993 0
0.583332 0.333327 0
0.583332 0.374993 0
0.666666 0.374994 0
0.666666 0.41666 0
0.624999 0.374993 0
0.624999 0.41666 0
0.624999 0.374993 0
0.624999 0.41666 0
0.583332 0.374993 0
0.583332 0.416659 0
0.416666 0.499992 0
0.416666 0.541659 0
0.374999 0.499993 0
0.374999 0.541659 0
0.416666 0.541659 0
0.416666 0.583326 0
0.374999 0.541659 0
0.374999 0.583326 0
0.374999 0.541659 0
0.374999 0.583326 0
0.333332 0.54166 0
0.333332 0.583326 0
0.374999 0.499993 0
0.374999 0.541659 0
0.333332 0.499993 0
0.333332 0.54166 0
0.416666 0.624993 0
0.416666 0.66666 0
0.374999 0.624993 0
0.374999 0.66666 0
0.374999 0.624993 0
0.374999 0.66666 0
0.333332 0.624994 0
0.333333 0.666661 0
0.374999 0.583326 0
0.374999 0.624993 0
0.333332 0.583326 0
0.333332 0.624994 0
0.416666 0.583326 0
0.416666 0.624993 0
0.374999 0.583326 0
0.374999 0.624993 0
0.666666 0.54166 0
0.708333 0.541661 0
0.666666 0.583327 0
0.708333 0.583327 0
0.666666 0.499993 0
0.708332 0.499994 0
0.666666 0.54166 0
0.708333 0.541661 0
0.708332 0.499994 0
0.749999 0.499994 0
0.708333 0.541661 0
0.749999 0.541661 0
0.708333 0.541661 0
0.749999 0.541661 0
0.708333 0.583327 0
0.749999 0.583328 0
0.416666 0.708327 0
0.416666 0.749994 0
0.374999 0.708328 0
0.374999 0.749995 0
0.374999 0.708328 0
0.374999 0.749995 0
0.333333 0.708328 0
0.333333 0.749995 0
0.374999 0.66666 0
0.374999 0.708328 0
0.333333 0.666661 0
0.333333 0.708328 0
0.416666 0.66666 0
0.416666 0.708327 0
0.374999 0.66666 0
0.374999 0.708328 0
0.666666 0.583327 0
0.666666 0.624994 0
0.624999 0.583326 0
0.624999 0.624993 0
0.666666 0.624994 0
0.666666 0.666661 0
0.624999 0.624993 0
0.624999 0.66666 0
0.624999 0.624993 0
0.624999 0.66666 0
0.583332 0.624993 0
0.583332 0.66666 0
0.624999 0.583326 0
0.624999 0.624993 0
0.583332 0.583326 0
0.583332 0.624993 0
0.499999 0.66666 0
0.541666 0.66666 0
0.499999 0.708327 0
0.541666 0.708327 0
0.541666 0.66666 0
0.583332 0.66666 0
0.541666 0.708327 0
0.583333 0.708327 0
0.541666 0.708327 0
0.583333 0.708327 0
0.541666 0.749994 0
0.583333 0.749995 0
0.499999 0.708327 0
0.541666 0.708327 0
0.499999 0.749994 0
0.541666 0.749994 0
0.333332 0.54166 0
0.333332 0.583326 0
0.291666 0.54166 0
0.291666 0.583327 0
0.416666 0.0833311 0
0.416667 0.0416656 0
0.458333 0.0833311 0
0.458333 0.0416655 0
0.416667 0.0416656 0
0.416667 0 0
0.458333 0.0416655 0
0.458333 0 0
0.458333 0.0416655 0
0.458333 0 0
0.5 0.0416655 0
0.5 0 0
0.458333 0.0833311 0
0.458333 0.0416655 0
0.5 0.0833311 0
0.5 0.0416655 0
0.541666 0.791662 0
0.583333 0.791662 0
0.541666 0.833329 0
0.583333 0.833329 0
0.499999 0.749994 0
0.541666 0.749994 0
0.499999 0.791662 0
0.541666 0.791662 0
0.541666 0.749994 0
0.583333 0.749995 0
0.541666 0.791662 0
0.583333 0.791662 0
0.624999 0.791662 0
0.625 0.83333 0
0.583333 0.791662 0
0.583333 0.833329 0
0.624999 0.749995 0
0.624999 0.791662 0
0.583333 0.749995 0
0.583333 0.791662 0
0.666666 0.749995 0
0.666666 0.791663 0
0.624999 0.749995 0
0.624999 0.791662 0
0.666666 0.791663 0
0.666666 0.83333 0
0.624999 0.791662 0
0.625 0.83333 0
0.708333 0.791663 0
0.75 0.791663 0
0.708333 0.83333 0
0.75 0.83333 0
0.666666 0.791663 0
0.708333 0.791663 0
0.666666 0.83333 0
0.708333 0.83333 0
0.666666 0.749995 0
0.708333 0.749996 0
0.666666 0.791663 0
0.708333 0.791663 0
0.708333 0.749996 0
0.749999 0.749996 0
0.708333 0.791663 0
0.75 0.791663 0
0.125 0.124999 0
0.125 0.104166 0
0.145833 0.124999 0
0.145833 0.104165 0
0.125 0.104166 0
0.125 0.0833324 0
0.145833 0.104165 0
0.145833 0.0833323 0
0.145833 0.124999 0
0.145833 0.104165 0
0.166666 0.124998 0
0.166666 0.104165 0
0.145833 0.104165 0
0.145833 0.0833323 0
0.166666 0.104165 0
0.166667 0.0833322 0
0.125 0.166665 0
0.125 0.145832 0
[...]
POINT_DATA 44772
SCALARS solution_0 double 1
LOOKUP_TABLE default
-0.0265123 -0.0304774 0.0152935 0.0115842 -0.0231262 -0.0265123 0.0182364 0.0152935 -0.0639341 -0.0675658 -0.0231262 -0.0265123 -0.0675658 -0.0716253 -0.0265123 -0.0304774 0.0502318 0.043902 0.0956249 0.0889907 0.0549275 0.0502318 0.100149 0.0956249 0.0115842 0.0068414 0.0549275 0.0502318 0.0068414 0.000888652 0.0502318 0.043902 -0.0304774 -0.0351587 0.0115842 0.0068414 -0.0716253 -0.0761289 -0.0304774 -0.0351587 -0.0761289 -0.0810807 -0.0351587 -0.0406573 -0.0351587 -0.0406573 0.0068414 0.000888652 -0.112084 -0.152331 -0.116232 -0.155925 -0.116232 -0.155925 -0.120534 -0.159568 -0.0761289 -0.116232 -0.0810807 -0.120534 -0.0716253 -0.112084 -0.0761289 -0.116232 -0.193746 -0.196625 -0.152331 -0.155925 -0.238732 -0.241141 -0.193746 -0.196625 -0.241141 -0.244433 -0.196625 -0.199999 -0.196625 -0.199999 -0.155925 -0.159568 -0.0675658 -0.108198 -0.0716253 -0.112084 -0.0639341 -0.104697 -0.0675658 -0.108198 -0.104697 -0.146285 -0.108198 -0.14901 -0.108198 -0.14901 -0.112084 -0.152331 -0.241141 -0.291054 -0.244433 -0.294952 -0.238732 -0.288395 -0.241141 -0.291054 -0.133781 -0.172702 -0.140118 -0.181284 -0.0972103 -0.133781 -0.103178 -0.140118 -0.0917858 -0.129106 -0.0972103 -0.133781 -0.129106 -0.16736 -0.133781 -0.172702 0.0182364 0.0152935 0.0605303 0.0582487 0.0152935 0.0115842 0.0582487 0.0549275 0.0582487 0.0549275 0.102899 0.100149 0.0605303 0.0582487 0.104262 0.102899 0.149786 0.147902 0.198785 0.198336 0.149704 0.149786 0.196321 0.198785 0.104262 0.102899 0.149704 0.149786 0.102899 0.100149 0.149786 0.147902 -0.236851 -0.238732 -0.191457 -0.193746 -0.191457 -0.193746 -0.14901 -0.152331 -0.189227 -0.191457 -0.146285 -0.14901 0.0228437 0.0631565 0.0244201 0.0631552 0.0631565 0.103646 0.0631552 0.101069 0.0799767 0.126886 0.0889907 0.136841 0.0683817 0.113479 0.0799767 0.126886 0.113479 0.161437 0.126886 0.176832 0.126886 0.176832 0.136841 0.187776 -0.197742 -0.105849 -0.18989 -0.101161 -0.105849 0 -0.101161 0 0.0502204 0.0846677 0.0752073 0.11534 0.0176197 0.0502204 0.0371783 0.0752073 -0.129106 -0.124831 -0.16736 -0.163342 -0.0917858 -0.0863794 -0.129106 -0.124831 -0.0863794 -0.0810807 -0.124831 -0.120534 -0.124831 -0.120534 -0.163342 -0.159568 0.054102 0.0371783 0.0963125 0.0752073 0.0963125 0.0752073 0.141038 0.11534 0.113479 0.0963125 0.161437 0.141038 0.0683817 0.054102 0.113479 0.0963125 0.196321 0.242573 0.190956 0.232361 -0.181938 -0.160754 -0.0923467 -0.0775009 -0.160754 -0.133511 -0.0775009 -0.0600868 -0.0775009 -0.0600868 0 0 -0.0923467 -0.0775009 0 0 0.196321 0.198785 0.242573 0.248442 0.198785 0.198336 0.248442 0.25025 0.0258354 0.0141441 0.0683817 0.054102 -0.0147274 -0.0240487 0.0258354 0.0141441 -0.0240487 -0.0341196 0.0141441 0.000900998 0.0141441 0.000900998 0.054102 0.0371783 -0.0140335 0.0176197 0.000900998 0.0371783 -0.0454286 -0.0140335 -0.0341196 0.000900998 -0.104697 -0.101804 -0.146285 -0.143485 -0.0639341 -0.0608541 -0.104697 -0.101804 -0.0469422 -0.0063312 -0.0406573 0.000888652 -0.0863794 -0.0469422 -0.0810807 -0.0406573 -0.0917858 -0.0538203 -0.0863794 -0.0469422 -0.0538203 -0.0147274 -0.0469422 -0.0063312 -0.24901 -0.203775 -0.244433 -0.199999 -0.208571 -0.16736 -0.203775 -0.163342 -0.203775 -0.163342 -0.199999 -0.159568 -0.0639341 -0.0231262 -0.0608541 -0.0200862 -0.0231262 0.0182364 -0.0200862 0.0206693 -0.0200862 0.0206693 -0.0174913 0.0228437 -0.0608541 -0.0200862 -0.0576406 -0.0174913 0.0605303 0.104262 0.0621234 0.104499 0.0621234 0.104499 0.0631565 0.103646 0.0206693 0.0621234 0.0228437 0.0631565 0.0182364 0.0605303 0.0206693 0.0621234 -0.0538203 -0.060998 -0.0147274 -0.0240487 -0.0917858 -0.0972103 -0.0538203 -0.060998 -0.0972103 -0.103178 -0.060998 -0.0685307 -0.060998 -0.0685307 -0.0240487 -0.0341196 0.149704 0.196321 0.147829 0.190956 0.147829 0.190956 0.143697 0.182553 0.104499 0.147829 0.103646 0.143697 0.104262 0.149704 0.104499 0.147829 -0.0147274 0.0258354 -0.0063312 0.0357853 0.0258354 0.0683817 0.0357853 0.0799767 0.0357853 0.0799767 0.043902 0.0889907 -0.0063312 0.0357853 0.000888652 0.043902 0.100149 0.0956249 0.147902 0.143717 0.0956249 0.0889907 0.143717 0.136841 0.143717 0.136841 0.194785 0.187776 0.147902 0.143717 0.198336 0.194785 -0.0174913 0.0228437 -0.014693 0.0244201 -0.181938 -0.0923467 -0.19469 -0.102541 -0.0923467 0 -0.102541 0 -0.102541 0 -0.105849 0 -0.19469 -0.102541 -0.197742 -0.105849 0.247858 0.241022 0.299996 0.293936 0.198336 0.194785 0.25025 0.247858 0.194785 0.187776 0.247858 0.241022 0.229139 0.281455 0.241022 0.293936 0.176832 0.229139 0.187776 0.241022 0.161437 0.211715 0.176832 0.229139 0.211715 0.262576 0.229139 0.281455 0.188069 0.157819 0.236731 0.203573 0.211715 0.188069 0.262576 0.236731 0.161437 0.141038 0.211715 0.188069 0.141038 0.11534 0.188069 0.157819 -0.0314068 -0.0208262 -0.0431341 -0.0298451 -0.0208262 -0.0115701 -0.0298451 -0.0179789 -0.0431341 -0.0298451 -0.0567756 -0.0406658 -0.0298451 -0.0179789 -0.0406658 -0.0260057 -0.0543004 -0.0427573 -0.0711557 -0.0571427 -0.0427573 -0.0314068 -0.0571427 -0.0431341 -0.0711557 -0.0571427 -0.089892 -0.0734711 -0.0571427 -0.0431341 -0.0734711 -0.0567756 -0.0266547 -0.0199854 -0.0394494 -0.030371 -0.0199854 -0.0136629 -0.030371 -0.0215968 -0.0394494 -0.030371 -0.0543004 -0.0427573 -0.030371 -0.0215968 -0.0427573 -0.0314068 -0.0136629 -0.00802271 -0.0215968 -0.0135784 -0.00802271 -0.00337685 -0.0135784 -0.00673812 -0.0215968 -0.0135784 -0.0314068 -0.0208262 -0.0135784 -0.00673812 -0.0208262 -0.0115701 -0.166059 -0.142083 -0.150504 -0.127372 -0.142083 -0.118713 -0.127372 -0.105217 -0.150504 -0.127372 -0.13194 -0.110273 -0.127372 -0.105217 -0.110273 -0.089892 -0.213663 -0.190098 -0.197639 -0.174104 -0.190098 -0.166059 -0.174104 -0.150504 -0.197639 -0.174104 -0.177243 -0.154435 -0.174104 -0.150504 -0.154435 -0.13194 -0.230198 -0.20862 -0.224636 -0.201741 -0.20862 -0.185684 -0.201741 -0.177934 -0.224636 -0.201741 -0.213663 -0.190098 -0.201741 -0.177934 -0.190098 -0.166059 -0.185684 -0.161925 -0.177934 -0.153755 -0.161925 -0.137923 -0.153755 -0.129769 -0.177934 -0.153755 -0.166059 -0.142083 -0.153755 -0.129769 -0.142083 -0.118713 0.216999 0.193804 0.216661 0.196227 0.193804 0.169134 0.196227 0.174375 0.216661 0.196227 0.212841 0.195136 0.196227 0.174375 0.195136 0.176052 0.258044 0.238469 0.252482 0.235461 0.238469 0.216999 0.235461 0.216661 0.252482 0.235461 0.243465 0.228988 0.235461 0.216661 0.228988 0.212841 -0.232478 -0.190072 -0.202959 -0.162184 -0.190072 -0.148153 -0.162184 -0.123337 -0.202959 -0.162184 -0.171651 -0.133884 -0.162184 -0.123337 -0.133884 -0.0990163 -0.282786 -0.240571 -0.259305 -0.216458 -0.240571 -0.195544 -0.216458 -0.172503 -0.259305 -0.216458 -0.232478 -0.190072 -0.216458 -0.172503 -0.190072 -0.148153 -0.195544 -0.15138 -0.172503 -0.130569 -0.15138 -0.110775 -0.130569 -0.0928324 -0.172503 -0.130569 -0.148153 -0.109242 -0.130569 -0.0928324 -0.109242 -0.0749481 -0.148153 -0.109242 -0.123337 -0.0881665 -0.109242 -0.0749481 -0.0881665 -0.0577693 -0.123337 -0.0881665 -0.0990163 -0.0681317 -0.0881665 -0.0577693 -0.0681317 -0.0419119 -0.288395 -0.313909 -0.289724 -0.315339 -0.313909 -0.337351 -0.315339 -0.339338 -0.289724 -0.315339 -0.291054 -0.317208 -0.315339 -0.339338 -0.317208 -0.341291 -0.291054 -0.317208 -0.293003 -0.319217 -0.317208 -0.341291 -0.319217 -0.343259 -0.293003 -0.319217 -0.294952 -0.321833 -0.319217 -0.343259 -0.321833 -0.345221 -0.0756748 -0.0654565 -0.0964446 -0.0844726 -0.0654565 -0.0543004 -0.0844726 -0.0711557 -0.0964446 -0.0844726 -0.118713 -0.105217 -0.0844726 -0.0711557 -0.105217 -0.089892 -0.091435 -0.0844664 -0.114252 -0.106517 -0.0844664 -0.0756748 -0.106517 -0.0964446 -0.114252 -0.106517 -0.137923 -0.129769 -0.106517 -0.0964446 -0.129769 -0.118713 -0.049937 -0.0452667 -0.0698923 -0.0639692 -0.0452667 -0.0396332 -0.0639692 -0.0566791 -0.0698923 -0.0639692 -0.091435 -0.0844664 -0.0639692 -0.0566791 -0.0844664 -0.0756748 -0.0396332 -0.0333203 -0.0566791 -0.0483689 -0.0333203 -0.0266547 -0.0483689 -0.0394494 -0.0566791 -0.0483689 -0.0756748 -0.0654565 -0.0483689 -0.0394494 -0.0654565 -0.0543004 -0.0909855 -0.087171 -0.111066 -0.106381 -0.087171 -0.0821229 -0.106381 -0.100154 -0.111066 -0.106381 -0.131076 -0.125318 -0.106381 -0.100154 -0.125318 -0.117717 -0.0512064 -0.0487438 -0.071 -0.0679098 -0.0487438 -0.0456394 -0.0679098 -0.0638864 -0.071 -0.0679098 -0.0909855 -0.087171 -0.0679098 -0.0638864 -0.087171 -0.0821229 -0.0456394 -0.0417592 -0.0638864 -0.0587885 -0.0417592 -0.037032 -0.0587885 -0.0525615 -0.0638864 -0.0587885 -0.0821229 -0.0756996 -0.0587885 -0.0525615 -0.0756996 -0.0678795 -0.0821229 -0.0756996 -0.100154 -0.0922654 -0.0756996 -0.0678795 -0.0922654 -0.082742 -0.100154 -0.0922654 -0.117717 -0.108199 -0.0922654 -0.082742 -0.108199 -0.0968559 0.116852 0.0903099 0.127689 0.103717 0.0903099 0.0645078 0.103717 0.0801076 0.127689 0.103717 0.134801 0.113308 0.103717 0.0801076 0.113308 0.0917896 0.169134 0.14333 0.174375 0.151402 0.14333 0.116852 0.151402 0.127689 0.174375 0.151402 0.176052 0.155838 0.151402 0.127689 0.155838 0.134801 0 0 -0.00313243 -0.00084586 0 0 -0.00084586 0.000514739 -0.00313243 -0.00084586 -0.00880726 -0.00153902 -0.00084586 0.000514739 -0.00153902 0.0030987 -0.00880726 -0.00153902 -0.0110848 0.000881764 -0.00153902 0.0030987 0.000881764 0.00913164 -0.0110848 0.000881764 -0.00724503 0.00814953 0.000881764 0.00913164 0.00814953 0.0193483 -0.235732 -0.236151 -0.212182 -0.212941 -0.236151 -0.236851 -0.212941 -0.214154 -0.212182 -0.212941 -0.189227 -0.190342 -0.212941 -0.214154 -0.190342 -0.191457 -0.0485684 -0.0595916 -0.0587654 -0.0717553 -0.0595916 -0.0698135 -0.0717553 -0.0839398 -0.0587654 -0.0717553 -0.0678795 -0.082742 -0.0717553 -0.0839398 -0.082742 -0.0968559 -0.0251199 -0.0370006 -0.0314574 -0.0452512 -0.0370006 -0.0485684 -0.0452512 -0.0587654 -0.0314574 -0.0452512 -0.037032 -0.0525615 -0.0452512 -0.0587654 -0.0525615 -0.0678795 -0.0112766 -0.0189395 -0.0182392 -0.0280732 -0.0189395 -0.0263658 -0.0280732 -0.0376054 -0.0182392 -0.0280732 -0.0251199 -0.0370006 -0.0280732 -0.0376054 -0.0370006 -0.0485684 -0.0263658 -0.0333734 -0.0376054 -0.0466264 -0.0333734 -0.0397741 -0.0466264 -0.0549119 -0.0376054 -0.0466264 -0.0485684 -0.0595916 -0.0466264 -0.0549119 -0.0595916 -0.0698135 0.291163 0.275624 0.280922 0.267644 0.275624 0.258044 0.267644 0.252482 0.280922 0.267644 0.267262 0.256221 0.267644 0.252482 0.256221 0.243465 0.316144 0.30466 0.30193 0.292338 0.30466 0.291163 0.292338 0.280922 0.30193 0.292338 0.284403 0.276635 0.292338 0.280922 0.276635 0.267262 -0.187766 -0.1654 -0.186926 -0.164517 -0.1654 -0.143485 -0.164517 -0.142403 -0.186926 -0.164517 -0.185717 -0.163396 -0.164517 -0.142403 -0.163396 -0.141418 -0.234251 -0.210836 -0.232792 -0.209831 -0.210836 -0.187766 -0.209831 -0.186926 -0.232792 -0.209831 -0.230398 -0.208209 -0.209831 -0.186926 -0.208209 -0.185717 -0.235732 -0.212182 -0.235128 -0.211559 -0.212182 -0.189227 -0.211559 -0.188377 -0.235128 -0.211559 -0.234251 -0.210836 -0.211559 -0.188377 -0.210836 -0.187766 -0.189227 -0.167756 -0.188377 -0.166346 -0.167756 -0.146285 -0.166346 -0.144885 -0.188377 -0.166346 -0.187766 -0.1654 -0.166346 -0.144885 -0.1654 -0.143485 0.0500798 0.0649106 0.0678011 0.0842726 0.0649106 0.080919 0.0842726 0.101833 0.0678011 0.0842726 0.0846677 0.102753 0.0842726 0.101833 0.102753 0.121817 0.080919 0.098766 0.101833 0.120917 0.098766 0.119596 0.120917 0.142569 0.101833 0.120917 0.121817 0.142051 0.120917 0.142569 0.142051 0.164155 0.121817 0.142051 0.140529 0.161814 0.142051 0.164155 0.161814 0.184551 0.140529 0.161814 0.157819 0.180696 0.161814 0.184551 0.180696 0.203573 0.0846677 0.102753 0.100004 0.120389 0.102753 0.121817 0.120389 0.140529 0.100004 0.120389 0.11534 0.13658 0.120389 0.140529 0.13658 0.157819 0.0631552 0.0821121 0.0627953 0.0810422 0.0821121 0.101069 0.0810422 0.0989734 0.0627953 0.0810422 0.0616925 0.0791316 0.0810422 0.0989734 0.0791316 0.0959196 0.0244201 0.0437876 0.0251668 0.0440481 0.0437876 0.0631552 0.0440481 0.0627953 0.0251668 0.0440481 0.0253867 0.0437542 0.0440481 0.0627953 0.0437542 0.0616925 -0.235732 -0.235128 -0.260066 -0.259083 -0.235128 -0.234251 -0.259083 -0.257572 -0.260066 -0.259083 -0.284182 -0.282401 -0.259083 -0.257572 -0.282401 -0.279771 -0.234251 -0.232792 -0.257572 -0.255185 -0.232792 -0.230398 -0.255185 -0.251513 -0.257572 -0.255185 -0.279771 -0.275912 -0.255185 -0.251513 -0.275912 -0.270412 -0.279771 -0.275912 -0.299372 -0.293483 -0.275912 -0.270412 -0.293483 -0.285653 -0.299372 -0.293483 -0.314454 -0.306114 -0.293483 -0.285653 -0.306114 -0.295638 -0.284182 -0.282401 -0.306837 -0.303696 -0.282401 -0.279771 -0.303696 -0.299372 -0.306837 -0.303696 -0.325941 -0.32095 -0.303696 -0.299372 -0.32095 -0.314454 -0.00324844 -0.00152014 -0.00755496 -0.00404737 -0.00152014 -0.000251336 -0.00404737 -0.00129532 -0.00755496 -0.00404737 -0.0136629 -0.00802271 -0.00404737 -0.00129532 -0.00802271 -0.00337685 -0.00759422 -0.00531271 -0.015974 -0.0116056 -0.00531271 -0.00324844 -0.0116056 -0.00755496 -0.015974 -0.0116056 -0.0266547 -0.0199854 -0.0116056 -0.00755496 -0.0199854 -0.0136629 0 0 -0.00196312 -0.00131409 0 0 -0.00131409 -0.000741027 -0.00196312 -0.00131409 -0.00759422 -0.00531271 -0.00131409 -0.000741027 -0.00531271 -0.00324844 0 0 -0.000741027 -0.00027706 0 0 -0.00027706 4.1636e-05 -0.000741027 -0.00027706 -0.00324844 -0.00152014 -0.00027706 4.1636e-05 -0.00152014 -0.000251336 -0.00724503 0.00814953 0.00324092 0.0205471 0.00814953 0.0193483 0.0205471 0.0335939 0.00324092 0.0205471 0.0196029 0.0374223 0.0205471 0.0335939 0.0374223 0.0510847 0.0196029 0.0374223 0.0405032 0.0576677 0.0374223 0.0510847 0.0576677 0.0708003 0.0405032 0.0576677 0.0645078 0.0801076 0.0576677 0.0708003 0.0801076 0.0917896 -0.101161 -0.0505805 -0.0945123 -0.0499574 -0.0505805 0 -0.0499574 0 -0.0945123 -0.0499574 -0.0870338 -0.0456066 -0.0499574 0 -0.0456066 0 -0.18989 -0.145525 -0.182007 -0.137953 -0.145525 -0.101161 -0.137953 -0.0945123 -0.182007 -0.137953 -0.171627 -0.128174 -0.137953 -0.0945123 -0.128174 -0.0870338 -0.257295 -0.262232 -0.232166 -0.236589 -0.262232 -0.267744 -0.236589 -0.241825 -0.232166 -0.236589 -0.208571 -0.212584 -0.236589 -0.241825 -0.212584 -0.217097 -0.217097 -0.222684 -0.194213 -0.198685 -0.222684 -0.229507 -0.198685 -0.20498 -0.194213 -0.198685 -0.172702 -0.176993 -0.198685 -0.20498 -0.176993 -0.181284 -0.305031 -0.27219 -0.278445 -0.242906 -0.27219 -0.232478 -0.242906 -0.202959 -0.278445 -0.242906 -0.24723 -0.210411 -0.242906 -0.202959 -0.210411 -0.171651 -0.230398 -0.208209 -0.226645 -0.205583 -0.208209 -0.185717 -0.205583 -0.183789 -0.226645 -0.205583 -0.22109 -0.201512 -0.205583 -0.183789 -0.201512 -0.180758 -0.185717 -0.163396 -0.183789 -0.16184 -0.163396 -0.141418 -0.16184 -0.140038 -0.183789 -0.16184 -0.180758 -0.159476 -0.16184 -0.140038 -0.159476 -0.13809 -0.180758 -0.159476 -0.176194 -0.155914 -0.159476 -0.13809 -0.155914 -0.135222 -0.176194 -0.155914 -0.169701 -0.150752 -0.155914 -0.135222 -0.150752 -0.131076 -0.22109 -0.201512 -0.213338 -0.195565 -0.201512 -0.180758 -0.195565 -0.176194 -0.213338 -0.195565 -0.203114 -0.187385 -0.195565 -0.176194 -0.187385 -0.169701 -0.282786 -0.302495 -0.240571 -0.261779 -0.302495 -0.318642 -0.261779 -0.279856 -0.240571 -0.261779 -0.195544 -0.216592 -0.261779 -0.279856 -0.216592 -0.235099 -0.235099 -0.250785 -0.18882 -0.204407 -0.250785 -0.263636 -0.204407 -0.217477 -0.18882 -0.204407 -0.144384 -0.158991 -0.204407 -0.217477 -0.158991 -0.171627 -0.195544 -0.216592 -0.15138 -0.170995 -0.216592 -0.235099 -0.170995 -0.18882 -0.15138 -0.170995 -0.110775 -0.128148 -0.170995 -0.18882 -0.128148 -0.144384 0 0 4.1636e-05 0.000152162 0 0 0.000152162 -2.85615e-05 4.1636e-05 0.000152162 -0.000251336 0.000414976 0.000152162 -2.85615e-05 0.000414976 0.000180745 0 0 -2.85615e-05 -0.0016169 0 0 -0.0016169 0 -2.85615e-05 -0.0016169 0.000180745 -0.000560122 -0.0016169 0 -0.000560122 0 0.000180745 -0.000560122 0.00117051 0.000903576 -0.000560122 0 0.000903576 0 0.00117051 0.000903576 0.00188898 0.00207672 0.000903576 0 0.00207672 0 -0.000251336 0.000414976 -0.00129532 0.000481462 0.000414976 0.000180745 0.000481462 0.00117051 -0.00129532 0.000481462 -0.00337685 2.81505e-06 0.000481462 0.00117051 2.81505e-06 0.00188898 -0.0556036 -0.0761584 -0.0339446 -0.0498617 -0.0761584 -0.0990163 -0.0498617 -0.0681317 -0.0339446 -0.0498617 -0.0161487 -0.0279055 -0.0498617 -0.0681317 -0.0279055 -0.0419119 -0.023727 -0.0379962 -0.0105876 -0.0207877 -0.0379962 -0.0556036 -0.0207877 -0.0339446 -0.0105876 -0.0207877 -0.000167261 -0.00688099 -0.0207877 -0.0339446 -0.00688099 -0.0161487 -0.0574875 -0.0816718 -0.0393324 -0.0582755 -0.0816718 -0.109569 -0.0582755 -0.0808594 -0.0393324 -0.0582755 -0.023727 -0.0379962 -0.0582755 -0.0808594 -0.0379962 -0.0556036 -0.109569 -0.140027 -0.0808594 -0.10639 -0.140027 -0.171651 -0.10639 -0.133884 -0.0808594 -0.10639 -0.0556036 -0.0761584 -0.10639 -0.133884 -0.0761584 -0.0990163 -0.117332 -0.161891 -0.0973879 -0.138731 -0.161891 -0.206358 -0.138731 -0.182421 -0.0973879 -0.138731 -0.0783224 -0.114947 -0.138731 -0.182421 -0.114947 -0.155787 -0.0445018 -0.0770269 -0.0348216 -0.0619928 -0.0770269 -0.117332 -0.0619928 -0.0973879 -0.0348216 -0.0619928 -0.0263784 -0.0485106 -0.0619928 -0.0973879 -0.0485106 -0.0783224 -0.0670938 -0.108527 -0.0553943 -0.0928992 -0.108527 -0.154975 -0.0928992 -0.136914 -0.0553943 -0.0928992 -0.0445018 -0.0770269 -0.0928992 -0.136914 -0.0770269 -0.117332 0.221196 0.240511 0.18963 0.209993 0.240511 0.258101 0.209993 0.228804 0.18963 0.209993 0.164155 0.184551 0.209993 0.228804 0.184551 0.203573 -0.225428 -0.207907 -0.230345 -0.210615 -0.207907 -0.18826 -0.210615 -0.189109 -0.230345 -0.210615 -0.230198 -0.20862 -0.210615 -0.189109 -0.20862 -0.185684 -0.203114 -0.190313 -0.216082 -0.200932 -0.190313 -0.175034 -0.200932 -0.183417 -0.216082 -0.200932 -0.225428 -0.207907 -0.200932 -0.183417 -0.207907 -0.18826 -0.175034 -0.157571 -0.183417 -0.163927 -0.157571 -0.138376 -0.163927 -0.142981 -0.183417 -0.163927 -0.18826 -0.166956 -0.163927 -0.142981 -0.166956 -0.144554 -0.18826 -0.166956 -0.189109 -0.16634 -0.166956 -0.144554 -0.16634 -0.142888 -0.189109 -0.16634 -0.185684 -0.161925 -0.16634 -0.142888 -0.161925 -0.137923 -0.00468271 0.00875625 0.00691107 0.0217872 0.00875625 0.0222635 0.0217872 0.0366585 0.00691107 0.0217872 0.0176197 0.0339201 0.0217872 0.0366585 0.0339201 0.0502204 0.0222635 0.0359846 0.0366585 0.0521216 0.0359846 0.0500798 0.0521216 0.0678011 0.0366585 0.0521216 0.0502204 0.067444 0.0521216 0.0678011 0.067444 0.0846677 0.000543949 0.00258241 -0.000683699 0.00107642 0.00258241 0.00505088 0.00107642 0.00296929 -0.000683699 0.00107642 0 0 0.00107642 0.00296929 0 0 0 -3.91648e-05 0 -0.00174019 -3.91648e-05 0.000543949 -0.00174019 -0.000683699 0 -0.00174019 0 0 -0.00174019 -0.000683699 0 0 0 0.000574868 0 0.000401931 0.000574868 0.00201481 0.000401931 0.00165459 0 0.000401931 0 -3.91648e-05 0.000401931 0.00165459 -3.91648e-05 0.000543949 0.00201481 0.00382276 0.00165459 0.00363211 0.00382276 0.0055052 0.00363211 0.00593035 0.00165459 0.00363211 0.000543949 0.00258241 0.00363211 0.00593035 0.00258241 0.00505088 -0.174688 -0.212048 -0.141267 -0.175924 -0.212048 -0.24723 -0.175924 -0.210411 -0.141267 -0.175924 -0.109569 -0.140027 -0.175924 -0.210411 -0.140027 -0.171651 -0.102262 -0.137411 -0.0784414 -0.108199 -0.137411 -0.174688 -0.108199 -0.141267 -0.0784414 -0.108199 -0.0574875 -0.0816718 -0.108199 -0.141267 -0.0816718 -0.109569 -0.155787 -0.197882 -0.128475 -0.167964 -0.197882 -0.238071 -0.167964 -0.207831 -0.128475 -0.167964 -0.102262 -0.137411 -0.167964 -0.207831 -0.137411 -0.174688 -0.241699 -0.219461 -0.236482 -0.212371 -0.219461 -0.196389 -0.212371 -0.188702 -0.236482 -0.212371 -0.229507 -0.20498 -0.212371 -0.188702 -0.20498 -0.181284 -0.0555483 -0.0534136 -0.0766767 -0.0741861 -0.0534136 -0.049937 -0.0741861 -0.0698923 -0.0766767 -0.0741861 -0.0988574 -0.0962889 -0.0741861 -0.0698923 -0.0962889 -0.091435 -0.0988574 -0.0962889 -0.121657 -0.119349 -0.0962889 -0.091435 -0.119349 -0.114252 -0.121657 -0.1193