# vtk DataFile Version 3.0
#This file was generated by the deal.II library on 2020/12/25 at 19:40:20
ASCII
DATASET UNSTRUCTURED_GRID

POINTS 29700 double
0.458332 0.541659 0
0.499999 0.541659 0
0.458332 0.583326 0
0.499999 0.583326 0
0.416666 0.541659 0
0.458332 0.541659 0
0.416666 0.583326 0
0.458332 0.583326 0
0.416666 0.499992 0
0.458332 0.499992 0
0.416666 0.541659 0
0.458332 0.541659 0
0.458332 0.499992 0
0.499999 0.499992 0
0.458332 0.541659 0
0.499999 0.541659 0
0.541666 0.624993 0
0.583332 0.624993 0
0.541666 0.66666 0
0.583332 0.66666 0
0.499999 0.624993 0
0.541666 0.624993 0
0.499999 0.66666 0
0.541666 0.66666 0
0.499999 0.583326 0
0.541666 0.583326 0
0.499999 0.624993 0
0.541666 0.624993 0
0.541666 0.583326 0
0.583332 0.583326 0
0.541666 0.624993 0
0.583332 0.624993 0
0.499999 0.541659 0
0.541666 0.541659 0
0.499999 0.583326 0
0.541666 0.583326 0
0.499999 0.499992 0
0.541666 0.499992 0
0.499999 0.541659 0
0.541666 0.541659 0
0.541666 0.499992 0
0.583332 0.499992 0
0.541666 0.541659 0
0.583332 0.541659 0
0.541666 0.541659 0
0.583332 0.541659 0
0.541666 0.583326 0
0.583332 0.583326 0
0.499999 0.458326 0
0.499999 0.416659 0
0.541666 0.458326 0
0.541666 0.416659 0
0.541666 0.458326 0
0.541666 0.416659 0
0.583332 0.458326 0
0.583332 0.416659 0
0.541666 0.499992 0
0.541666 0.458326 0
0.583332 0.499992 0
0.583332 0.458326 0
0.499999 0.499992 0
0.499999 0.458326 0
0.541666 0.499992 0
0.541666 0.458326 0
0.499999 0.374993 0
0.541666 0.374993 0
0.499999 0.416659 0
0.541666 0.416659 0
0.499999 0.333326 0
0.541666 0.333326 0
0.499999 0.374993 0
0.541666 0.374993 0
0.541666 0.333326 0
0.583332 0.333327 0
0.541666 0.374993 0
0.583332 0.374993 0
0.541666 0.374993 0
0.583332 0.374993 0
0.541666 0.416659 0
0.583332 0.416659 0
0.458332 0.499992 0
0.458332 0.458326 0
0.499999 0.499992 0
0.499999 0.458326 0
0.416666 0.499992 0
0.416666 0.458326 0
0.458332 0.499992 0
0.458332 0.458326 0
0.416666 0.458326 0
0.416666 0.416659 0
0.458332 0.458326 0
0.458332 0.416659 0
0.458332 0.458326 0
0.458332 0.416659 0
0.499999 0.458326 0
0.499999 0.416659 0
0.541666 0.333326 0
0.541666 0.29166 0
0.583332 0.333327 0
0.583333 0.29166 0
0.499999 0.333326 0
0.499999 0.29166 0
0.541666 0.333326 0
0.541666 0.29166 0
0.708333 0.458327 0
0.708333 0.41666 0
0.749999 0.458328 0
0.749999 0.416661 0
0.708332 0.499994 0
0.708333 0.458327 0
0.749999 0.499994 0
0.749999 0.458328 0
0.666666 0.499993 0
0.666666 0.458327 0
0.708332 0.499994 0
0.708333 0.458327 0
0.666666 0.458327 0
0.666666 0.41666 0
0.708333 0.458327 0
0.708333 0.41666 0
0.416666 0.583326 0
0.458332 0.583326 0
0.416666 0.624993 0
0.458332 0.624993 0
0.458332 0.583326 0
0.499999 0.583326 0
0.458332 0.624993 0
0.499999 0.624993 0
0.458332 0.624993 0
0.499999 0.624993 0
0.458332 0.66666 0
0.499999 0.66666 0
0.416666 0.624993 0
0.458332 0.624993 0
0.416666 0.66666 0
0.458332 0.66666 0
0.458333 0.708327 0
0.499999 0.708327 0
0.458333 0.749994 0
0.499999 0.749994 0
0.416666 0.708327 0
0.458333 0.708327 0
0.416666 0.749994 0
0.458333 0.749994 0
0.416666 0.66666 0
0.458332 0.66666 0
0.416666 0.708327 0
0.458333 0.708327 0
0.458332 0.66666 0
0.499999 0.66666 0
0.458333 0.708327 0
0.499999 0.708327 0
0.458332 0.333326 0
0.499999 0.333326 0
0.458332 0.374993 0
0.499999 0.374993 0
0.458332 0.374993 0
0.499999 0.374993 0
0.458332 0.416659 0
0.499999 0.416659 0
0.416666 0.374993 0
0.458332 0.374993 0
0.416666 0.416659 0
0.458332 0.416659 0
0.333332 0.583326 0
0.333332 0.624994 0
0.291666 0.583327 0
0.291666 0.624994 0
0.333332 0.624994 0
0.333333 0.666661 0
0.291666 0.624994 0
0.291666 0.666661 0
0.624999 0.66666 0
0.624999 0.708328 0
0.583332 0.66666 0
0.583333 0.708327 0
0.666666 0.666661 0
0.666666 0.708328 0
0.624999 0.66666 0
0.624999 0.708328 0
0.666666 0.708328 0
0.666666 0.749995 0
0.624999 0.708328 0
0.624999 0.749995 0
0.624999 0.708328 0
0.624999 0.749995 0
0.583333 0.708327 0
0.583333 0.749995 0
0.5 0.0833311 0
0.5 0.0416655 0
0.541666 0.0833311 0
0.541667 0.0416655 0
0.5 0.0416655 0
0.5 0 0
0.541667 0.0416655 0
0.541667 0 0
0.791666 0.70833 0
0.791666 0.749997 0
0.749999 0.708329 0
0.749999 0.749996 0
0.791666 0.666663 0
0.791666 0.70833 0
0.749999 0.666662 0
0.749999 0.708329 0
0.666666 0.458327 0
0.624999 0.458326 0
0.666666 0.41666 0
0.624999 0.41666 0
0.666666 0.499993 0
0.624999 0.499993 0
0.666666 0.458327 0
0.624999 0.458326 0
0.624999 0.499993 0
0.583332 0.499992 0
0.624999 0.458326 0
0.583332 0.458326 0
0.624999 0.458326 0
0.583332 0.458326 0
0.624999 0.41666 0
0.583332 0.416659 0
0.708333 0.666661 0
0.749999 0.666662 0
0.708333 0.708328 0
0.749999 0.708329 0
0.708333 0.708328 0
0.749999 0.708329 0
0.708333 0.749996 0
0.749999 0.749996 0
0.666666 0.708328 0
0.708333 0.708328 0
0.666666 0.749995 0
0.708333 0.749996 0
0.666666 0.666661 0
0.708333 0.666661 0
0.666666 0.708328 0
0.708333 0.708328 0
0.416666 0.749994 0
0.416666 0.791662 0
0.374999 0.749995 0
0.374999 0.791662 0
0.416666 0.0833311 0
0.375 0.0833312 0
0.416667 0.0416656 0
0.375 0.0416656 0
0.375 0.0833312 0
0.333333 0.0833314 0
0.375 0.0416656 0
0.333333 0.0416657 0
0.375 0.0416656 0
0.333333 0.0416657 0
0.375 0 0
0.333333 0 0
0.416667 0.0416656 0
0.375 0.0416656 0
0.416667 0 0
0.375 0 0
0.416666 0.749994 0
0.458333 0.749994 0
0.416666 0.791662 0
0.458333 0.791662 0
0.458333 0.749994 0
0.499999 0.749994 0
0.458333 0.791662 0
0.499999 0.791662 0
0.666666 0.624994 0
0.708333 0.624994 0
0.666666 0.666661 0
0.708333 0.666661 0
0.666666 0.583327 0
0.708333 0.583327 0
0.666666 0.624994 0
0.708333 0.624994 0
0.708333 0.583327 0
0.749999 0.583328 0
0.708333 0.624994 0
0.749999 0.624995 0
0.708333 0.624994 0
0.749999 0.624995 0
0.708333 0.666661 0
0.749999 0.666662 0
0.791666 0.624996 0
0.791666 0.666663 0
0.749999 0.624995 0
0.749999 0.666662 0
0.791666 0.583329 0
0.791666 0.624996 0
0.749999 0.583328 0
0.749999 0.624995 0
0.416666 0.458326 0
0.374999 0.458326 0
0.416666 0.416659 0
0.374999 0.416659 0
0.416666 0.499992 0
0.374999 0.499993 0
0.416666 0.458326 0
0.374999 0.458326 0
0.624999 0.54166 0
0.624999 0.583326 0
0.583332 0.541659 0
0.583332 0.583326 0
0.624999 0.499993 0
0.624999 0.54166 0
0.583332 0.499992 0
0.583332 0.541659 0
0.666666 0.499993 0
0.666666 0.54166 0
0.624999 0.499993 0
0.624999 0.54166 0
0.666666 0.54166 0
0.666666 0.583327 0
0.624999 0.54166 0
0.624999 0.583326 0
0.624999 0.333327 0
0.624999 0.374993 0
0.583332 0.333327 0
0.583332 0.374993 0
0.666666 0.374994 0
0.666666 0.41666 0
0.624999 0.374993 0
0.624999 0.41666 0
0.624999 0.374993 0
0.624999 0.41666 0
0.583332 0.374993 0
0.583332 0.416659 0
0.416666 0.499992 0
0.416666 0.541659 0
0.374999 0.499993 0
0.374999 0.541659 0
0.416666 0.541659 0
0.416666 0.583326 0
0.374999 0.541659 0
0.374999 0.583326 0
0.374999 0.541659 0
0.374999 0.583326 0
0.333332 0.54166 0
0.333332 0.583326 0
0.374999 0.499993 0
0.374999 0.541659 0
0.333332 0.499993 0
0.333332 0.54166 0
0.416666 0.624993 0
0.416666 0.66666 0
0.374999 0.624993 0
0.374999 0.66666 0
0.374999 0.624993 0
0.374999 0.66666 0
0.333332 0.624994 0
0.333333 0.666661 0
0.374999 0.583326 0
0.374999 0.624993 0
0.333332 0.583326 0
0.333332 0.624994 0
0.416666 0.583326 0
0.416666 0.624993 0
0.374999 0.583326 0
0.374999 0.624993 0
0.666666 0.54166 0
0.708333 0.541661 0
0.666666 0.583327 0
0.708333 0.583327 0
0.666666 0.499993 0
0.708332 0.499994 0
0.666666 0.54166 0
0.708333 0.541661 0
0.708332 0.499994 0
0.749999 0.499994 0
0.708333 0.541661 0
0.749999 0.541661 0
0.708333 0.541661 0
0.749999 0.541661 0
0.708333 0.583327 0
0.749999 0.583328 0
0.416666 0.708327 0
0.416666 0.749994 0
0.374999 0.708328 0
0.374999 0.749995 0
0.374999 0.708328 0
0.374999 0.749995 0
0.333333 0.708328 0
0.333333 0.749995 0
0.374999 0.66666 0
0.374999 0.708328 0
0.333333 0.666661 0
0.333333 0.708328 0
0.416666 0.66666 0
0.416666 0.708327 0
0.374999 0.66666 0
0.374999 0.708328 0
0.666666 0.583327 0
0.666666 0.624994 0
0.624999 0.583326 0
0.624999 0.624993 0
0.666666 0.624994 0
0.666666 0.666661 0
0.624999 0.624993 0
0.624999 0.66666 0
0.624999 0.624993 0
0.624999 0.66666 0
0.583332 0.624993 0
0.583332 0.66666 0
0.624999 0.583326 0
0.624999 0.624993 0
0.583332 0.583326 0
0.583332 0.624993 0
0.499999 0.66666 0
0.541666 0.66666 0
0.499999 0.708327 0
0.541666 0.708327 0
0.541666 0.66666 0
0.583332 0.66666 0
0.541666 0.708327 0
0.583333 0.708327 0
0.541666 0.708327 0
0.583333 0.708327 0
0.541666 0.749994 0
0.583333 0.749995 0
0.499999 0.708327 0
0.541666 0.708327 0
0.499999 0.749994 0
0.541666 0.749994 0
0.333332 0.54166 0
0.333332 0.583326 0
0.291666 0.54166 0
0.291666 0.583327 0
0.416666 0.0833311 0
0.416667 0.0416656 0
0.458333 0.0833311 0
0.458333 0.0416655 0
0.416667 0.0416656 0
0.416667 0 0
0.458333 0.0416655 0
0.458333 0 0
0.458333 0.0416655 0
0.458333 0 0
0.5 0.0416655 0
0.5 0 0
0.458333 0.0833311 0
0.458333 0.0416655 0
0.5 0.0833311 0
0.5 0.0416655 0
0.541666 0.791662 0
0.583333 0.791662 0
0.541666 0.833329 0
0.583333 0.833329 0
0.499999 0.749994 0
0.541666 0.749994 0
0.499999 0.791662 0
0.541666 0.791662 0
0.541666 0.749994 0
0.583333 0.749995 0
0.541666 0.791662 0
0.583333 0.791662 0
0.624999 0.791662 0
0.625 0.83333 0
0.583333 0.791662 0
0.583333 0.833329 0
0.624999 0.749995 0
0.624999 0.791662 0
0.583333 0.749995 0
0.583333 0.791662 0
0.666666 0.749995 0
0.666666 0.791663 0
0.624999 0.749995 0
0.624999 0.791662 0
0.666666 0.791663 0
0.666666 0.83333 0
0.624999 0.791662 0
0.625 0.83333 0
0.708333 0.791663 0
0.75 0.791663 0
0.708333 0.83333 0
0.75 0.83333 0
0.666666 0.791663 0
0.708333 0.791663 0
0.666666 0.83333 0
0.708333 0.83333 0
0.666666 0.749995 0
0.708333 0.749996 0
0.666666 0.791663 0
0.708333 0.791663 0
0.708333 0.749996 0
0.749999 0.749996 0
0.708333 0.791663 0
0.75 0.791663 0
0.125 0.124999 0
0.125 0.104166 0
0.145833 0.124999 0
0.145833 0.104165 0
0.125 0.104166 0
0.125 0.0833324 0
0.145833 0.104165 0
0.145833 0.0833323 0
0.145833 0.124999 0
0.145833 0.104165 0
0.166666 0.124998 0
0.166666 0.104165 0
0.145833 0.104165 0
0.145833 0.0833323 0
0.166666 0.104165 0
0.166667 0.0833322 0
0.125 0.166665 0
0.125 0.145832 0
[...]
POINT_DATA 29700
SCALARS solution_0 double 1
LOOKUP_TABLE default
-0.0251351 -0.0290671 0.0156912 0.0119902 -0.0217742 -0.0251351 0.0186517 0.0156912 -0.0616423 -0.0651978 -0.0217742 -0.0251351 -0.0651978 -0.0691944 -0.0251351 -0.0290671 0.0496776 0.0434286 0.094044 0.0874825 0.0543406 0.0496776 0.0985535 0.094044 0.0119902 0.00729201 0.0543406 0.0496776 0.00729201 0.00142162 0.0496776 0.0434286 -0.0290671 -0.0336951 0.0119902 0.00729201 -0.0691944 -0.0736316 -0.0290671 -0.0336951 -0.0736316 -0.078499 -0.0336951 -0.0391117 -0.0336951 -0.0391117 0.00729201 0.00142162 -0.108639 -0.147945 -0.1127 -0.151428 -0.1127 -0.151428 -0.116915 -0.154996 -0.0736316 -0.1127 -0.078499 -0.116915 -0.0691944 -0.108639 -0.0736316 -0.1127 -0.188565 -0.191333 -0.147945 -0.151428 -0.23282 -0.23517 -0.188565 -0.191333 -0.23517 -0.238442 -0.191333 -0.194654 -0.191333 -0.194654 -0.151428 -0.154996 -0.0651978 -0.104857 -0.0691944 -0.108639 -0.0616423 -0.101487 -0.0651978 -0.104857 -0.101487 -0.142206 -0.104857 -0.14477 -0.104857 -0.14477 -0.108639 -0.147945 -0.23517 -0.284062 -0.238442 -0.287922 -0.23282 -0.281407 -0.23517 -0.284062 -0.130087 -0.168298 -0.136634 -0.177123 -0.0943486 -0.130087 -0.100392 -0.136634 -0.088986 -0.125359 -0.0943486 -0.130087 -0.125359 -0.162801 -0.130087 -0.168298 0.0186517 0.0156912 0.0600164 0.0576794 0.0156912 0.0119902 0.0576794 0.0543406 0.0576794 0.0543406 0.101346 0.0985535 0.0600164 0.0576794 0.102785 0.101346 0.147146 0.145209 0.194813 0.194325 0.147134 0.147146 0.192388 0.194813 0.102785 0.101346 0.147134 0.147146 0.101346 0.0985535 0.147146 0.145209 -0.230996 -0.23282 -0.186416 -0.188565 -0.186416 -0.188565 -0.14477 -0.147945 -0.18433 -0.186416 -0.142206 -0.14477 0.0232456 0.062673 0.0247193 0.0625444 0.062673 0.102186 0.0625444 0.0994598 0.0785916 0.124373 0.0874825 0.134208 0.0671633 0.111143 0.0785916 0.124373 0.111143 0.157813 0.124373 0.173006 0.124373 0.173006 0.134208 0.183824 -0.190382 -0.10206 -0.183002 -0.0977708 -0.10206 0 -0.0977708 0 0.0488299 0.0823296 0.0734198 0.112436 0.0171175 0.0488299 0.03641 0.0734198 -0.125359 -0.12113 -0.162801 -0.158739 -0.088986 -0.0836911 -0.125359 -0.12113 -0.0836911 -0.078499 -0.12113 -0.116915 -0.12113 -0.116915 -0.158739 -0.154996 0.0530898 0.03641 0.0942143 0.0734198 0.0942143 0.0734198 0.13771 0.112436 0.111143 0.0942143 0.157813 0.13771 0.0671633 0.0530898 0.111143 0.0942143 0.192388 0.236898 0.18703 0.226707 -0.17485 -0.154375 -0.088833 -0.0745503 -0.154375 -0.128166 -0.0745503 -0.0578628 -0.0745503 -0.0578628 0 0 -0.088833 -0.0745503 0 0 0.192388 0.194813 0.236898 0.242747 0.194813 0.194325 0.242747 0.244541 0.0256428 0.0141376 0.0671633 0.0530898 -0.0139265 -0.0230816 0.0256428 0.0141376 -0.0230816 -0.0330151 0.0141376 0.00108709 0.0141376 0.00108709 0.0530898 0.03641 -0.0137001 0.0171175 0.00108709 0.03641 -0.0442993 -0.0137001 -0.0330151 0.00108709 -0.101487 -0.098728 -0.142206 -0.139571 -0.0616423 -0.0586503 -0.101487 -0.098728 -0.045283 -0.00568006 -0.0391117 0.00142162 -0.0836911 -0.045283 -0.078499 -0.0391117 -0.088986 -0.0520224 -0.0836911 -0.045283 -0.0520224 -0.0139265 -0.045283 -0.00568006 -0.243028 -0.198455 -0.238442 -0.194654 -0.203361 -0.162801 -0.198455 -0.158739 -0.198455 -0.158739 -0.194654 -0.154996 -0.0616423 -0.0217742 -0.0586503 -0.0187723 -0.0217742 0.0186517 -0.0187723 0.0211038 -0.0187723 0.0211038 -0.0162297 0.0232456 -0.0586503 -0.0187723 -0.0555476 -0.0162297 0.0600164 0.102785 0.0616625 0.103078 0.0616625 0.103078 0.062673 0.102186 0.0211038 0.0616625 0.0232456 0.062673 0.0186517 0.0600164 0.0211038 0.0616625 -0.0520224 -0.0590669 -0.0139265 -0.0230816 -0.088986 -0.0943486 -0.0520224 -0.0590669 -0.0943486 -0.100392 -0.0590669 -0.0665538 -0.0590669 -0.0665538 -0.0230816 -0.0330151 0.147134 0.192388 0.145284 0.18703 0.145284 0.18703 0.141103 0.178565 0.103078 0.145284 0.102186 0.141103 0.102785 0.147134 0.103078 0.145284 -0.0139265 0.0256428 -0.00568006 0.0354346 0.0256428 0.0671633 0.0354346 0.0785916 0.0354346 0.0785916 0.0434286 0.0874825 -0.00568006 0.0354346 0.00142162 0.0434286 0.0985535 0.094044 0.145209 0.141023 0.094044 0.0874825 0.141023 0.134208 0.141023 0.134208 0.190773 0.183824 0.145209 0.141023 0.194325 0.190773 -0.0162297 0.0232456 -0.013549 0.0247193 -0.17485 -0.088833 -0.187272 -0.0987249 -0.088833 0 -0.0987249 0 -0.0987249 0 -0.10206 0 -0.187272 -0.0987249 -0.190382 -0.10206 0.242185 0.235427 0.29225 0.286328 0.194325 0.190773 0.244541 0.242185 0.190773 0.183824 0.242185 0.235427 0.223711 0.274126 0.235427 0.286328 0.173006 0.223711 0.183824 0.235427 0.157813 0.206557 0.173006 0.223711 0.206557 0.255675 0.223711 0.274126 0.183327 0.15369 0.230465 0.198181 0.206557 0.183327 0.255675 0.230465 0.157813 0.13771 0.206557 0.183327 0.13771 0.112436 0.183327 0.15369 -0.0302613 -0.0202082 -0.0414782 -0.0288473 -0.0202082 -0.0113932 -0.0288473 -0.0175467 -0.0414782 -0.0288473 -0.0545175 -0.0391991 -0.0288473 -0.0175467 -0.0391991 -0.0252355 -0.0519668 -0.0410287 -0.0680673 -0.0547758 -0.0410287 -0.0302613 -0.0547758 -0.0414782 -0.0680673 -0.0547758 -0.0859681 -0.0703767 -0.0547758 -0.0414782 -0.0703767 -0.0545175 -0.0255442 -0.0192388 -0.0377775 -0.0291838 -0.0192388 -0.0132497 -0.0291838 -0.020866 -0.0377775 -0.0291838 -0.0519668 -0.0410287 -0.0291838 -0.020866 -0.0410287 -0.0302613 -0.0132497 -0.00789246 -0.020866 -0.0132493 -0.00789246 -0.00346186 -0.0132493 -0.00673257 -0.020866 -0.0132493 -0.0302613 -0.0202082 -0.0132493 -0.00673257 -0.0202082 -0.0113932 -0.158731 -0.135727 -0.143875 -0.121715 -0.135727 -0.113346 -0.121715 -0.100521 -0.143875 -0.121715 -0.126184 -0.105451 -0.121715 -0.100521 -0.105451 -0.0859681 -0.204567 -0.181847 -0.189152 -0.166521 -0.181847 -0.158731 -0.166521 -0.143875 -0.189152 -0.166521 -0.169625 -0.147737 -0.166521 -0.143875 -0.147737 -0.126184 -0.220782 -0.199808 -0.215228 -0.193075 -0.199808 -0.177617 -0.193075 -0.17012 -0.215228 -0.193075 -0.204567 -0.181847 -0.193075 -0.17012 -0.181847 -0.158731 -0.177617 -0.154717 -0.17012 -0.146874 -0.154717 -0.131653 -0.146874 -0.123869 -0.17012 -0.146874 -0.158731 -0.135727 -0.146874 -0.123869 -0.135727 -0.113346 0.208767 0.186173 0.208969 0.188993 0.186173 0.162202 0.188993 0.167688 0.208969 0.188993 0.205784 0.188404 0.188993 0.167688 0.188404 0.169723 0.248901 0.229735 0.244121 0.227395 0.229735 0.208767 0.227395 0.208969 0.244121 0.227395 0.235969 0.221679 0.227395 0.208969 0.221679 0.205784 -0.223801 -0.18313 -0.195474 -0.156407 -0.18313 -0.142984 -0.156407 -0.119194 -0.195474 -0.156407 -0.165462 -0.129286 -0.156407 -0.119194 -0.129286 -0.0958556 -0.272185 -0.231553 -0.249583 -0.208423 -0.231553 -0.188389 -0.208423 -0.166315 -0.249583 -0.208423 -0.223801 -0.18313 -0.208423 -0.166315 -0.18313 -0.142984 -0.188389 -0.146121 -0.166315 -0.126171 -0.146121 -0.107256 -0.126171 -0.0900242 -0.166315 -0.126171 -0.142984 -0.105711 -0.126171 -0.0900242 -0.105711 -0.0728247 -0.142984 -0.105711 -0.119194 -0.0854689 -0.105711 -0.0728247 -0.0854689 -0.0562765 -0.119194 -0.0854689 -0.0958556 -0.0661968 -0.0854689 -0.0562765 -0.0661968 -0.0409708 -0.281407 -0.306027 -0.282734 -0.307492 -0.306027 -0.328313 -0.307492 -0.330331 -0.282734 -0.307492 -0.284062 -0.309349 -0.307492 -0.330331 -0.309349 -0.332267 -0.284062 -0.309349 -0.285992 -0.311313 -0.309349 -0.332267 -0.311313 -0.334167 -0.285992 -0.311313 -0.287922 -0.31383 -0.311313 -0.334167 -0.31383 -0.336014 -0.0722056 -0.0625314 -0.0920497 -0.0806949 -0.0625314 -0.0519668 -0.0806949 -0.0680673 -0.0920497 -0.0806949 -0.113346 -0.100521 -0.0806949 -0.0680673 -0.100521 -0.0859681 -0.0871333 -0.0805305 -0.108964 -0.10161 -0.0805305 -0.0722056 -0.10161 -0.0920497 -0.108964 -0.10161 -0.131653 -0.123869 -0.10161 -0.0920497 -0.123869 -0.113346 -0.0474967 -0.0430992 -0.0665482 -0.0609532 -0.0430992 -0.0377906 -0.0609532 -0.0540659 -0.0665482 -0.0609532 -0.0871333 -0.0805305 -0.0609532 -0.0540659 -0.0805305 -0.0722056 -0.0377906 -0.031837 -0.0540659 -0.0462123 -0.031837 -0.0255442 -0.0462123 -0.0377775 -0.0540659 -0.0462123 -0.0722056 -0.0625314 -0.0462123 -0.0377775 -0.0625314 -0.0519668 -0.0879665 -0.0841075 -0.107468 -0.10271 -0.0841075 -0.0790482 -0.10271 -0.0964606 -0.107468 -0.10271 -0.12685 -0.120998 -0.10271 -0.0964606 -0.120998 -0.113374 -0.0492301 -0.0467849 -0.0685184 -0.0654146 -0.0467849 -0.0437111 -0.0654146 -0.0613992 -0.0685184 -0.0654146 -0.0879665 -0.0841075 -0.0654146 -0.0613992 -0.0841075 -0.0790482 -0.0437111 -0.0398903 -0.0613992 -0.056353 -0.0398903 -0.0352654 -0.056353 -0.0502397 -0.0613992 -0.056353 -0.0790482 -0.072675 -0.056353 -0.0502397 -0.072675 -0.0649879 -0.0790482 -0.072675 -0.0964606 -0.0886305 -0.072675 -0.0649879 -0.0886305 -0.0792702 -0.0964606 -0.0886305 -0.113374 -0.103937 -0.0886305 -0.0792702 -0.103937 -0.0928022 0.111613 0.086043 0.122347 0.0991616 0.086043 0.0612747 0.0991616 0.0763983 0.122347 0.0991616 0.129504 0.108628 0.0991616 0.0763983 0.108628 0.0877884 0.162202 0.137198 0.167688 0.145347 0.137198 0.111613 0.145347 0.122347 0.167688 0.145347 0.169723 0.149989 0.145347 0.122347 0.149989 0.129504 0 0 -0.00295172 -0.000793127 0 0 -0.000793127 0.000494301 -0.00295172 -0.000793127 -0.00832899 -0.00145449 -0.000793127 0.000494301 -0.00145449 0.00294081 -0.00832899 -0.00145449 -0.0105342 0.00080833 -0.00145449 0.00294081 0.00080833 0.00864044 -0.0105342 0.00080833 -0.00696513 0.00766051 0.00080833 0.00864044 0.00766051 0.0183175 -0.229869 -0.230311 -0.206836 -0.20756 -0.230311 -0.230996 -0.20756 -0.208706 -0.206836 -0.20756 -0.18433 -0.185373 -0.20756 -0.208706 -0.185373 -0.186416 -0.0462212 -0.0567786 -0.0560997 -0.0685594 -0.0567786 -0.0665531 -0.0685594 -0.0802235 -0.0560997 -0.0685594 -0.0649879 -0.0792702 -0.0685594 -0.0802235 -0.0792702 -0.0928022 -0.0237206 -0.0351272 -0.0298453 -0.0431157 -0.0351272 -0.0462212 -0.0431157 -0.0560997 -0.0298453 -0.0431157 -0.0352654 -0.0502397 -0.0431157 -0.0560997 -0.0502397 -0.0649879 -0.0104925 -0.0178127 -0.0171156 -0.0265367 -0.0178127 -0.0249051 -0.0265367 -0.0356622 -0.0171156 -0.0265367 -0.0237206 -0.0351272 -0.0265367 -0.0356622 -0.0351272 -0.0462212 -0.0249051 -0.0315945 -0.0356622 -0.0442901 -0.0315945 -0.0377011 -0.0442901 -0.0522056 -0.0356622 -0.0442901 -0.0462212 -0.0567786 -0.0442901 -0.0522056 -0.0567786 -0.0665531 0.281442 0.266155 0.272168 0.259057 0.266155 0.248901 0.259057 0.244121 0.272168 0.259057 0.259544 0.248592 0.259057 0.244121 0.248592 0.235969 0.306106 0.294752 0.292978 0.283466 0.294752 0.281442 0.283466 0.272168 0.292978 0.283466 0.27659 0.26886 0.283466 0.272168 0.26886 0.259544 -0.182929 -0.16104 -0.182055 -0.160169 -0.16104 -0.139571 -0.160169 -0.138535 -0.182055 -0.160169 -0.180757 -0.159014 -0.160169 -0.138535 -0.159014 -0.137551 -0.228218 -0.205453 -0.226592 -0.204353 -0.205453 -0.182929 -0.204353 -0.182055 -0.226592 -0.204353 -0.223982 -0.202577 -0.204353 -0.182055 -0.202577 -0.180757 -0.229869 -0.206836 -0.229206 -0.206217 -0.206836 -0.18433 -0.206217 -0.183532 -0.229206 -0.206217 -0.228218 -0.205453 -0.206217 -0.183532 -0.205453 -0.182929 -0.18433 -0.163268 -0.183532 -0.161938 -0.163268 -0.142206 -0.161938 -0.140888 -0.183532 -0.161938 -0.182929 -0.16104 -0.161938 -0.140888 -0.16104 -0.139571 0.048411 0.0629035 0.0657979 0.0818481 0.0629035 0.0785849 0.0818481 0.0989967 0.0657979 0.0818481 0.0823296 0.099926 0.0818481 0.0989967 0.099926 0.118504 0.0785849 0.0961278 0.0989967 0.117688 0.0961278 0.116694 0.117688 0.138987 0.0989967 0.117688 0.118504 0.138257 0.117688 0.138987 0.138257 0.15992 0.118504 0.138257 0.136792 0.157512 0.138257 0.15992 0.157512 0.179712 0.136792 0.157512 0.15369 0.175935 0.157512 0.179712 0.175935 0.198181 0.0823296 0.099926 0.0973828 0.117193 0.099926 0.118504 0.117193 0.136792 0.0973828 0.117193 0.112436 0.133063 0.117193 0.136792 0.133063 0.15369 0.0625444 0.0810021 0.062056 0.0798064 0.0810021 0.0994598 0.0798064 0.0972038 0.062056 0.0798064 0.0608186 0.0777479 0.0798064 0.0972038 0.0777479 0.0940046 0.0247193 0.0436318 0.0253621 0.0437882 0.0436318 0.0625444 0.0437882 0.062056 0.0253621 0.0437882 0.025478 0.0433692 0.0437882 0.062056 0.0433692 0.0608186 -0.229869 -0.229206 -0.253543 -0.252434 -0.229206 -0.228218 -0.252434 -0.250742 -0.253543 -0.252434 -0.276826 -0.27485 -0.252434 -0.250742 -0.27485 -0.271985 -0.228218 -0.226592 -0.250742 -0.248126 -0.226592 -0.223982 -0.248126 -0.244192 -0.250742 -0.248126 -0.271985 -0.267861 -0.248126 -0.244192 -0.267861 -0.262093 -0.271985 -0.267861 -0.290495 -0.284356 -0.267861 -0.262093 -0.284356 -0.276309 -0.290495 -0.284356 -0.304447 -0.295936 -0.284356 -0.276309 -0.295936 -0.285357 -0.276826 -0.27485 -0.298437 -0.295069 -0.27485 -0.271985 -0.295069 -0.290495 -0.298437 -0.295069 -0.316348 -0.311148 -0.295069 -0.290495 -0.311148 -0.304447 -0.00318773 -0.00154543 -0.00736323 -0.00403122 -0.00154543 -0.000329306 -0.00403122 -0.00140167 -0.00736323 -0.00403122 -0.0132497 -0.00789246 -0.00403122 -0.00140167 -0.00789246 -0.00346186 -0.00728915 -0.00513956 -0.0153205 -0.0111969 -0.00513956 -0.00318773 -0.0111969 -0.00736323 -0.0153205 -0.0111969 -0.0255442 -0.0192388 -0.0111969 -0.00736323 -0.0192388 -0.0132497 0 0 -0.00188589 -0.00127557 0 0 -0.00127557 -0.000734205 -0.00188589 -0.00127557 -0.00728915 -0.00513956 -0.00127557 -0.000734205 -0.00513956 -0.00318773 0 0 -0.000734205 -0.000293072 0 0 -0.000293072 1.35636e-05 -0.000734205 -0.000293072 -0.00318773 -0.00154543 -0.000293072 1.35636e-05 -0.00154543 -0.000329306 -0.00696513 0.00766051 0.00291089 0.019409 0.00766051 0.0183175 0.019409 0.0318688 0.00291089 0.019409 0.0184142 0.0354766 0.019409 0.0318688 0.0354766 0.0485906 0.0184142 0.0354766 0.0383201 0.0548425 0.0354766 0.0485906 0.0548425 0.0675332 0.0383201 0.0548425 0.0612747 0.0763983 0.0548425 0.0675332 0.0763983 0.0877884 -0.0977708 -0.0488854 -0.0914497 -0.048378 -0.0488854 0 -0.048378 0 -0.0914497 -0.048378 -0.0843405 -0.0442574 -0.048378 0 -0.0442574 0 -0.183002 -0.140387 -0.175475 -0.133255 -0.140387 -0.0977708 -0.133255 -0.0914497 -0.175475 -0.133255 -0.165559 -0.123933 -0.133255 -0.0914497 -0.123933 -0.0843405 -0.251264 -0.256119 -0.226604 -0.231041 -0.256119 -0.261466 -0.231041 -0.236247 -0.226604 -0.231041 -0.203361 -0.207439 -0.231041 -0.236247 -0.207439 -0.212008 -0.212008 -0.217596 -0.189494 -0.194054 -0.217596 -0.224303 -0.194054 -0.200368 -0.189494 -0.194054 -0.168298 -0.17271 -0.194054 -0.200368 -0.17271 -0.177123 -0.293909 -0.262026 -0.268141 -0.233829 -0.262026 -0.223801 -0.233829 -0.195474 -0.268141 -0.233829 -0.238011 -0.202612 -0.233829 -0.195474 -0.202612 -0.165462 -0.223982 -0.202577 -0.21998 -0.199749 -0.202577 -0.180757 -0.199749 -0.178685 -0.21998 -0.199749 -0.214178 -0.195452 -0.199749 -0.178685 -0.195452 -0.17547 -0.180757 -0.159014 -0.178685 -0.157372 -0.159014 -0.137551 -0.157372 -0.136133 -0.178685 -0.157372 -0.17547 -0.154876 -0.157372 -0.136133 -0.154876 -0.134101 -0.17547 -0.154876 -0.17071 -0.151154 -0.154876 -0.134101 -0.151154 -0.131118 -0.17071 -0.151154 -0.164053 -0.145841 -0.151154 -0.131118 -0.145841 -0.12685 -0.214178 -0.195452 -0.206226 -0.189291 -0.195452 -0.17547 -0.189291 -0.17071 -0.206226 -0.189291 -0.195897 -0.180959 -0.189291 -0.17071 -0.180959 -0.164053 -0.272185 -0.2912 -0.231553 -0.251913 -0.2912 -0.306803 -0.251913 -0.269279 -0.231553 -0.251913 -0.188389 -0.208555 -0.251913 -0.269279 -0.208555 -0.226291 -0.226291 -0.241329 -0.181984 -0.196906 -0.241329 -0.253634 -0.196906 -0.209414 -0.181984 -0.196906 -0.139485 -0.153472 -0.196906 -0.209414 -0.153472 -0.165559 -0.188389 -0.208555 -0.146121 -0.164913 -0.208555 -0.226291 -0.164913 -0.181984 -0.146121 -0.164913 -0.107256 -0.123924 -0.164913 -0.181984 -0.123924 -0.139485 0 0 1.35636e-05 0.000126867 0 0 0.000126867 -3.07026e-05 1.35636e-05 0.000126867 -0.000329306 0.00032589 0.000126867 -3.07026e-05 0.00032589 0.000143627 0 0 -3.07026e-05 -0.00148636 0 0 -0.00148636 0 -3.07026e-05 -0.00148636 0.000143627 -0.000514889 -0.00148636 0 -0.000514889 0 0.000143627 -0.000514889 0.00101926 0.000819176 -0.000514889 0 0.000819176 0 0.00101926 0.000819176 0.001628 0.00187565 0.000819176 0 0.00187565 0 -0.000329306 0.00032589 -0.00140167 0.000317871 0.00032589 0.000143627 0.000317871 0.00101926 -0.00140167 0.000317871 -0.00346186 -0.000216103 0.000317871 0.00101926 -0.000216103 0.001628 -0.054098 -0.0738894 -0.0332109 -0.0485883 -0.0738894 -0.0958556 -0.0485883 -0.0661968 -0.0332109 -0.0485883 -0.0160096 -0.0274188 -0.0485883 -0.0661968 -0.0274188 -0.0409708 -0.0232885 -0.037103 -0.0105444 -0.0204631 -0.037103 -0.054098 -0.0204631 -0.0332109 -0.0105444 -0.0204631 -0.000408476 -0.00698189 -0.0204631 -0.0332109 -0.00698189 -0.0160096 -0.0558929 -0.0791619 -0.0383848 -0.0566622 -0.0791619 -0.105947 -0.0566622 -0.0783955 -0.0383848 -0.0566622 -0.0232885 -0.037103 -0.0566622 -0.0783955 -0.037103 -0.054098 -0.105947 -0.135154 -0.0783955 -0.102916 -0.135154 -0.165462 -0.102916 -0.129286 -0.0783955 -0.102916 -0.054098 -0.0738894 -0.102916 -0.129286 -0.0738894 -0.0958556 -0.112986 -0.155781 -0.0939374 -0.133601 -0.155781 -0.198622 -0.133601 -0.175575 -0.0939374 -0.133601 -0.0757313 -0.110869 -0.133601 -0.175575 -0.110869 -0.15005 -0.0430771 -0.0743154 -0.0338251 -0.0599668 -0.0743154 -0.112986 -0.0599668 -0.0939374 -0.0338251 -0.0599668 -0.0257292 -0.0470757 -0.0599668 -0.0939374 -0.0470757 -0.0757313 -0.0646208 -0.104384 -0.053467 -0.0894576 -0.104384 -0.149048 -0.0894576 -0.131715 -0.053467 -0.0894576 -0.0430771 -0.0743154 -0.0894576 -0.131715 -0.0743154 -0.112986 0.216352 0.234913 0.185027 0.20471 0.234913 0.251804 0.20471 0.222892 0.185027 0.20471 0.15992 0.179712 0.20471 0.222892 0.179712 0.198181 -0.216788 -0.199555 -0.221202 -0.201919 -0.199555 -0.180377 -0.201919 -0.181025 -0.221202 -0.201919 -0.220782 -0.199808 -0.201919 -0.181025 -0.199808 -0.177617 -0.195897 -0.183131 -0.208107 -0.193104 -0.183131 -0.168055 -0.193104 -0.175916 -0.208107 -0.193104 -0.216788 -0.199555 -0.193104 -0.175916 -0.199555 -0.180377 -0.168055 -0.150974 -0.175916 -0.156931 -0.150974 -0.132329 -0.156931 -0.136647 -0.175916 -0.156931 -0.180377 -0.159705 -0.156931 -0.136647 -0.159705 -0.138074 -0.180377 -0.159705 -0.181025 -0.159011 -0.159705 -0.138074 -0.159011 -0.136425 -0.181025 -0.159011 -0.177617 -0.154717 -0.159011 -0.136425 -0.154717 -0.131653 -0.00499864 0.00810916 0.00652078 0.0210033 0.00810916 0.0212778 0.0210033 0.0354782 0.00652078 0.0210033 0.0171175 0.0329737 0.0210033 0.0354782 0.0329737 0.0488299 0.0212778 0.0346577 0.0354782 0.0505258 0.0346577 0.048411 0.0505258 0.0657979 0.0354782 0.0505258 0.0488299 0.0655798 0.0505258 0.0657979 0.0655798 0.0823296 0.000607565 0.0025976 -0.000582508 0.00112448 0.0025976 0.0049856 0.00112448 0.0029584 -0.000582508 0.00112448 0 0 0.00112448 0.0029584 0 0 0 -6.95758e-06 0 -0.00161425 -6.95758e-06 0.000607565 -0.00161425 -0.000582508 0 -0.00161425 0 0 -0.00161425 -0.000582508 0 0 0 0.000566992 0 0.000408625 0.000566992 0.00197945 0.000408625 0.00165633 0 0.000408625 0 -6.95758e-06 0.000408625 0.00165633 -6.95758e-06 0.000607565 0.00197945 0.00373499 0.00165633 0.00358935 0.00373499 0.00534583 0.00358935 0.00580672 0.00165633 0.00358935 0.000607565 0.0025976 0.00358935 0.00580672 0.0025976 0.0049856 -0.168309 -0.204171 -0.136308 -0.169533 -0.204171 -0.238011 -0.169533 -0.202612 -0.136308 -0.169533 -0.105947 -0.135154 -0.169533 -0.202612 -0.135154 -0.165462 -0.0988527 -0.132561 -0.0760305 -0.1046 -0.132561 -0.168309 -0.1046 -0.136308 -0.0760305 -0.1046 -0.0558929 -0.0791619 -0.1046 -0.136308 -0.0791619 -0.105947 -0.15005 -0.19049 -0.123923 -0.161799 -0.19049 -0.229209 -0.161799 -0.200087 -0.123923 -0.161799 -0.0988527 -0.132561 -0.161799 -0.200087 -0.132561 -0.168309 -0.235744 -0.214427 -0.230998 -0.20764 -0.214427 -0.192104 -0.20764 -0.184552 -0.230998 -0.20764 -0.224303 -0.200368 -0.20764 -0.184552 -0.200368 -0.177123 -0.0527696 -0.0507667 -0.0729557 -0.0706041 -0.0507667 -0.0474967 -0.0706041 -0.0665482 -0.0729557 -0.0706041 -0.0941824 -0.0917384 -0.0706041 -0.0665482 -0.0917384 -0.0871333 -0.0941824 -0.0917384 -0.116049 -0.113826 -0.0917384 -0.0871333 -0.113826 -0.108964 -0.116049 -0.113826 -0.138074 -0.136425 -0.11