# vtk DataFile Version 3.0
#This file was generated by the deal.II library on 2020/12/27 at 13:44:47
ASCII
DATASET UNSTRUCTURED_GRID

POINTS 15024 double
0.125 0.124999 0
0.125 0.0833324 0
0.166666 0.124998 0
0.166667 0.0833322 0
0.125 0.166665 0
0.125 0.124999 0
0.166666 0.166664 0
0.166666 0.124998 0
0.0833332 0.166666 0
0.0833332 0.124999 0
0.125 0.166665 0
0.125 0.124999 0
0.0833332 0.124999 0
0.0833333 0.0833327 0
0.125 0.124999 0
0.125 0.0833324 0
0.458332 0.541659 0
0.499999 0.541659 0
0.458332 0.583326 0
0.499999 0.583326 0
0.416666 0.541659 0
0.458332 0.541659 0
0.416666 0.583326 0
0.458332 0.583326 0
0.416666 0.499992 0
0.458332 0.499992 0
0.416666 0.541659 0
0.458332 0.541659 0
0.458332 0.499992 0
0.499999 0.499992 0
0.458332 0.541659 0
0.499999 0.541659 0
0.541666 0.624993 0
0.583332 0.624993 0
0.541666 0.66666 0
0.583332 0.66666 0
0.499999 0.624993 0
0.541666 0.624993 0
0.499999 0.66666 0
0.541666 0.66666 0
0.499999 0.583326 0
0.541666 0.583326 0
0.499999 0.624993 0
0.541666 0.624993 0
0.541666 0.583326 0
0.583332 0.583326 0
0.541666 0.624993 0
0.583332 0.624993 0
0.499999 0.541659 0
0.541666 0.541659 0
0.499999 0.583326 0
0.541666 0.583326 0
0.499999 0.499992 0
0.541666 0.499992 0
0.499999 0.541659 0
0.541666 0.541659 0
0.541666 0.499992 0
0.583332 0.499992 0
0.541666 0.541659 0
0.583332 0.541659 0
0.541666 0.541659 0
0.583332 0.541659 0
0.541666 0.583326 0
0.583332 0.583326 0
0.499999 0.458326 0
0.499999 0.416659 0
0.541666 0.458326 0
0.541666 0.416659 0
0.541666 0.458326 0
0.541666 0.416659 0
0.583332 0.458326 0
0.583332 0.416659 0
0.541666 0.499992 0
0.541666 0.458326 0
0.583332 0.499992 0
0.583332 0.458326 0
0.499999 0.499992 0
0.499999 0.458326 0
0.541666 0.499992 0
0.541666 0.458326 0
0.208333 0.20833 0
0.166666 0.208331 0
0.208333 0.166664 0
0.166666 0.166664 0
0.208333 0.249996 0
0.166666 0.249997 0
0.208333 0.20833 0
0.166666 0.208331 0
0.499999 0.374993 0
0.541666 0.374993 0
0.499999 0.416659 0
0.541666 0.416659 0
0.499999 0.333326 0
0.541666 0.333326 0
0.499999 0.374993 0
0.541666 0.374993 0
0.541666 0.333326 0
0.583332 0.333327 0
0.541666 0.374993 0
0.583332 0.374993 0
0.541666 0.374993 0
0.583332 0.374993 0
0.541666 0.416659 0
0.583332 0.416659 0
0.458332 0.499992 0
0.458332 0.458326 0
0.499999 0.499992 0
0.499999 0.458326 0
0.416666 0.499992 0
0.416666 0.458326 0
0.458332 0.499992 0
0.458332 0.458326 0
0.416666 0.458326 0
0.416666 0.416659 0
0.458332 0.458326 0
0.458332 0.416659 0
0.458332 0.458326 0
0.458332 0.416659 0
0.499999 0.458326 0
0.499999 0.416659 0
0.125 0.208331 0
0.125 0.166665 0
0.166666 0.208331 0
0.166666 0.166664 0
0.125 0.249998 0
0.125 0.208331 0
0.166666 0.249997 0
0.166666 0.208331 0
0.0833331 0.249998 0
0.0833331 0.208332 0
0.125 0.249998 0
0.125 0.208331 0
0.0833331 0.208332 0
0.0833332 0.166666 0
0.125 0.208331 0
0.125 0.166665 0
0.416666 0.583326 0
0.458332 0.583326 0
0.416666 0.624993 0
0.458332 0.624993 0
0.458332 0.583326 0
0.499999 0.583326 0
0.458332 0.624993 0
0.499999 0.624993 0
0.458332 0.624993 0
0.499999 0.624993 0
0.458332 0.66666 0
0.499999 0.66666 0
0.416666 0.624993 0
0.458332 0.624993 0
0.416666 0.66666 0
0.458332 0.66666 0
0.458333 0.708327 0
0.499999 0.708327 0
0.458333 0.749994 0
0.499999 0.749994 0
0.416666 0.708327 0
0.458333 0.708327 0
0.416666 0.749994 0
0.458333 0.749994 0
0.416666 0.66666 0
0.458332 0.66666 0
0.416666 0.708327 0
0.458333 0.708327 0
0.458332 0.66666 0
0.499999 0.66666 0
0.458333 0.708327 0
0.499999 0.708327 0
0.458332 0.333326 0
0.499999 0.333326 0
0.458332 0.374993 0
0.499999 0.374993 0
0.458332 0.374993 0
0.499999 0.374993 0
0.458332 0.416659 0
0.499999 0.416659 0
0.416666 0.374993 0
0.458332 0.374993 0
0.416666 0.416659 0
0.458332 0.416659 0
0.416666 0.374993 0
0.416666 0.416659 0
0.374999 0.374993 0
0.374999 0.416659 0
0.624999 0.66666 0
0.624999 0.708328 0
0.583332 0.66666 0
0.583333 0.708327 0
0.666666 0.666661 0
0.666666 0.708328 0
0.624999 0.66666 0
0.624999 0.708328 0
0.666666 0.708328 0
0.666666 0.749995 0
0.624999 0.708328 0
0.624999 0.749995 0
0.624999 0.708328 0
0.624999 0.749995 0
0.583333 0.708327 0
0.583333 0.749995 0
0.0416666 0.125 0
0.0416666 0.083333 0
0.0833332 0.124999 0
0.0833333 0.0833327 0
0.0416666 0.166666 0
0.0416666 0.125 0
0.0833332 0.166666 0
0.0833332 0.124999 0
0 0.166667 0
0 0.125 0
0.0416666 0.166666 0
0.0416666 0.125 0
0 0.125 0
0 0.0833333 0
0.0416666 0.125 0
0.0416666 0.083333 0
0.541667 0.0416655 0
0.541667 0 0
0.583333 0.0416656 0
0.583333 0 0
0.541666 0.0833311 0
0.541667 0.0416655 0
0.583333 0.0833311 0
0.583333 0.0416656 0
0.5 0.0833311 0
0.5 0.0416655 0
0.541666 0.0833311 0
0.541667 0.0416655 0
0.5 0.0416655 0
0.5 0 0
0.541667 0.0416655 0
0.541667 0 0
0 0.0833333 0
0 0.0416667 0
0.0416666 0.083333 0
0.0416666 0.0416665 0
0 0.0416667 0
0 0 0
0.0416666 0.0416665 0
0.0416667 0 0
0.0416666 0.0416665 0
0.0416667 0 0
0.0833333 0.0416664 0
0.0833333 0 0
0.0416666 0.083333 0
0.0416666 0.0416665 0
0.0833333 0.0833327 0
0.0833333 0.0416664 0
0.0833331 0.291665 0
0.0833331 0.249998 0
0.125 0.291664 0
0.125 0.249998 0
0.125 0.291664 0
0.125 0.249998 0
0.166666 0.291663 0
0.166666 0.249997 0
0.125 0.33333 0
0.125 0.291664 0
0.166666 0.33333 0
0.166666 0.291663 0
0.0833331 0.333331 0
0.0833331 0.291665 0
0.125 0.33333 0
0.125 0.291664 0
0.666666 0.458327 0
0.624999 0.458326 0
0.666666 0.41666 0
0.624999 0.41666 0
0.666666 0.499993 0
0.624999 0.499993 0
0.666666 0.458327 0
0.624999 0.458326 0
0.624999 0.499993 0
0.583332 0.499992 0
0.624999 0.458326 0
0.583332 0.458326 0
0.624999 0.458326 0
0.583332 0.458326 0
0.624999 0.41666 0
0.583332 0.416659 0
0 0.208333 0
0 0.166667 0
0.0416666 0.208333 0
0.0416666 0.166666 0
0.0416666 0.208333 0
0.0416666 0.166666 0
0.0833331 0.208332 0
0.0833332 0.166666 0
0.708333 0.666661 0
0.749999 0.666662 0
0.708333 0.708328 0
0.749999 0.708329 0
0.708333 0.708328 0
0.749999 0.708329 0
0.708333 0.749996 0
0.749999 0.749996 0
0.666666 0.708328 0
0.708333 0.708328 0
0.666666 0.749995 0
0.708333 0.749996 0
0.666666 0.666661 0
0.708333 0.666661 0
0.666666 0.708328 0
0.708333 0.708328 0
0.416666 0.0833311 0
0.375 0.0833312 0
0.416667 0.0416656 0
0.375 0.0416656 0
0.375 0.0833312 0
0.333333 0.0833314 0
0.375 0.0416656 0
0.333333 0.0416657 0
0.375 0.0416656 0
0.333333 0.0416657 0
0.375 0 0
0.333333 0 0
0.416667 0.0416656 0
0.375 0.0416656 0
0.416667 0 0
0.375 0 0
0.458333 0.749994 0
0.499999 0.749994 0
0.458333 0.791662 0
0.499999 0.791662 0
0.666666 0.624994 0
0.708333 0.624994 0
0.666666 0.666661 0
0.708333 0.666661 0
0.666666 0.583327 0
0.708333 0.583327 0
0.666666 0.624994 0
0.708333 0.624994 0
0.708333 0.624994 0
0.749999 0.624995 0
0.708333 0.666661 0
0.749999 0.666662 0
0.625 0.0833312 0
0.583333 0.0833311 0
0.625 0.0416656 0
0.583333 0.0416656 0
0.625 0.0416656 0
0.583333 0.0416656 0
0.625 0 0
0.583333 0 0
0.374999 0.499993 0
0.333332 0.499993 0
0.374999 0.458326 0
0.333332 0.458326 0
0.416666 0.458326 0
0.374999 0.458326 0
0.416666 0.416659 0
0.374999 0.416659 0
0.416666 0.499992 0
0.374999 0.499993 0
0.416666 0.458326 0
0.374999 0.458326 0
0.624999 0.54166 0
0.624999 0.583326 0
0.583332 0.541659 0
0.583332 0.583326 0
0.624999 0.499993 0
0.624999 0.54166 0
0.583332 0.499992 0
0.583332 0.541659 0
0.666666 0.499993 0
0.666666 0.54166 0
0.624999 0.499993 0
0.624999 0.54166 0
0.666666 0.54166 0
0.666666 0.583327 0
0.624999 0.54166 0
0.624999 0.583326 0
0.5 0.124997 0
0.5 0.0833311 0
0.541666 0.124997 0
0.541666 0.0833311 0
0.541666 0.124997 0
0.541666 0.0833311 0
0.583333 0.124997 0
0.583333 0.0833311 0
0.666666 0.374994 0
0.666666 0.41666 0
0.624999 0.374993 0
0.624999 0.41666 0
0.624999 0.374993 0
0.624999 0.41666 0
0.583332 0.374993 0
0.583332 0.416659 0
0.416666 0.499992 0
0.416666 0.541659 0
0.374999 0.499993 0
0.374999 0.541659 0
0.416666 0.541659 0
0.416666 0.583326 0
0.374999 0.541659 0
0.374999 0.583326 0
0.374999 0.541659 0
0.374999 0.583326 0
0.333332 0.54166 0
0.333332 0.583326 0
0.374999 0.499993 0
0.374999 0.541659 0
0.333332 0.499993 0
0.333332 0.54166 0
0.416666 0.624993 0
0.416666 0.66666 0
0.374999 0.624993 0
0.374999 0.66666 0
0.374999 0.624993 0
0.374999 0.66666 0
0.333332 0.624994 0
0.333333 0.666661 0
0.374999 0.583326 0
0.374999 0.624993 0
0.333332 0.583326 0
0.333332 0.624994 0
0.416666 0.583326 0
0.416666 0.624993 0
0.374999 0.583326 0
0.374999 0.624993 0
0.666666 0.54166 0
0.708333 0.541661 0
0.666666 0.583327 0
0.708333 0.583327 0
0.666666 0.499993 0
0.708332 0.499994 0
0.666666 0.54166 0
0.708333 0.541661 0
0.416666 0.708327 0
0.416666 0.749994 0
0.374999 0.708328 0
0.374999 0.749995 0
0.416666 0.66666 0
0.416666 0.708327 0
0.374999 0.66666 0
0.374999 0.708328 0
0.666666 0.583327 0
0.666666 0.624994 0
0.624999 0.583326 0
0.624999 0.624993 0
0.666666 0.624994 0
0.666666 0.666661 0
0.624999 0.624993 0
0.624999 0.66666 0
0.624999 0.624993 0
0.624999 0.66666 0
0.583332 0.624993 0
0.583332 0.66666 0
0.624999 0.583326 0
0.624999 0.624993 0
0.583332 0.583326 0
0.583332 0.624993 0
0.499999 0.66666 0
0.541666 0.66666 0
0.499999 0.708327 0
0.541666 0.708327 0
0.541666 0.66666 0
0.583332 0.66666 0
0.541666 0.708327 0
0.583333 0.708327 0
0.541666 0.708327 0
0.583333 0.708327 0
0.541666 0.749994 0
0.583333 0.749995 0
0.499999 0.708327 0
0.541666 0.708327 0
0.499999 0.749994 0
0.541666 0.749994 0
0.416666 0.0833311 0
0.416667 0.0416656 0
0.458333 0.0833311 0
0.458333 0.0416655 0
0.416667 0.0416656 0
0.416667 0 0
0.458333 0.0416655 0
0.458333 0 0
0.458333 0.0416655 0
0.458333 0 0
0.5 0.0416655 0
0.5 0 0
0.458333 0.0833311 0
0.458333 0.0416655 0
0.5 0.0833311 0
0.5 0.0416655 0
0.499999 0.749994 0
0.541666 0.749994 0
0.499999 0.791662 0
0.541666 0.791662 0
0.541666 0.749994 0
0.583333 0.749995 0
0.541666 0.791662 0
0.583333 0.791662 0
0.208333 0.041666 0
0.166667 0.0416661 0
0.208333 0 0
0.166667 0 0
0.25 0.0416658 0
0.208333 0.041666 0
0.25 0 0
0.208333 0 0
0.333333 0.0833314 0
0.291666 0.0833315 0
0.333333 0.0416657 0
0.291667 0.0416658 0
0.291667 0.0416658 0
0.25 0.0416658 0
0.291667 0 0
0.25 0 0
0.333333 0.0416657 0
0.291667 0.0416658 0
[...]
POINT_DATA 15024
SCALARS solution_0 double 1
LOOKUP_TABLE default
-0.0288893 -0.0115067 -0.0511147 -0.0245509 -0.0482527 -0.0288893 -0.079228 -0.0511147 -0.0237698 -0.0128185 -0.0482527 -0.0288893 -0.0128185 -0.00421026 -0.0288893 -0.0115067 -0.0231848 -0.0270156 0.0159006 0.0122418 -0.0198852 -0.0231848 0.0188619 0.0159006 -0.0581177 -0.0614842 -0.0198852 -0.0231848 -0.0614842 -0.0653178 -0.0231848 -0.0270156 0.0482307 0.0421521 0.0907265 0.0843114 0.0528108 0.0482307 0.0951868 0.0907265 0.0122418 0.00765663 0.0528108 0.0482307 0.00765663 0.0019696 0.0482307 0.0421521 -0.0270156 -0.0315059 0.0122418 0.00765663 -0.0653178 -0.0695871 -0.0270156 -0.0315059 -0.0695871 -0.074262 -0.0315059 -0.0367292 -0.0315059 -0.0367292 0.00765663 0.0019696 -0.102955 -0.140586 -0.106826 -0.14381 -0.106826 -0.14381 -0.110842 -0.147238 -0.0695871 -0.106826 -0.074262 -0.110842 -0.0653178 -0.102955 -0.0695871 -0.106826 -0.145384 -0.103631 -0.115616 -0.079228 -0.162871 -0.120134 -0.145384 -0.103631 -0.179819 -0.18237 -0.140586 -0.14381 -0.222544 -0.224863 -0.179819 -0.18237 -0.224863 -0.22798 -0.18237 -0.185303 -0.18237 -0.185303 -0.14381 -0.147238 -0.0614842 -0.0994047 -0.0653178 -0.102955 -0.0581177 -0.0963304 -0.0614842 -0.0994047 -0.0963304 -0.135365 -0.0994047 -0.137706 -0.0994047 -0.137706 -0.102955 -0.140586 -0.0662948 -0.0482527 -0.103631 -0.079228 -0.0794851 -0.0662948 -0.120134 -0.103631 -0.0434438 -0.0345189 -0.0794851 -0.0662948 -0.0345189 -0.0237698 -0.0662948 -0.0482527 0.0188619 0.0159006 0.0585441 0.0561533 0.0159006 0.0122418 0.0561533 0.0528108 0.0561533 0.0528108 0.0980153 0.0951868 0.0585441 0.0561533 0.0994954 0.0980153 0.141755 0.139779 0.186753 0.186346 0.141776 0.141755 0.184512 0.186753 0.0994954 0.0980153 0.141776 0.141755 0.0980153 0.0951868 0.141755 0.139779 -0.221097 -0.222544 -0.177911 -0.179819 -0.177911 -0.179819 -0.137706 -0.140586 -0.176182 -0.177911 -0.135365 -0.137706 -0.176182 -0.135365 -0.174761 -0.133451 0.0756611 0.119342 0.0843114 0.128934 0.0645619 0.106475 0.0756611 0.119342 0.106475 0.150767 0.119342 0.165518 0.119342 0.165518 0.128934 0.176057 -0.0030647 -0.000526428 -0.0128185 -0.00421026 -0.00656186 -0.0030647 -0.0237698 -0.0128185 0 0 -0.00656186 -0.0030647 0 0 -0.0030647 -0.000526428 -0.0891383 0 -0.0785368 0 -0.167947 -0.0891383 -0.152991 -0.0785368 -0.173915 -0.0931541 -0.167947 -0.0891383 -0.0931541 0 -0.0891383 0 0 0 -0.000526428 -0.00105252 0 0 -0.00105252 0 -0.00105252 0 0.000471285 0 -0.000526428 -0.00105252 -0.00421026 0.000471285 -0.0481733 -0.0434438 -0.0857129 -0.0794851 -0.0857129 -0.0794851 -0.126611 -0.120134 -0.0839489 -0.0857129 -0.121903 -0.126611 -0.0474123 -0.0481733 -0.0839489 -0.0857129 -0.118852 -0.114932 -0.154763 -0.150842 -0.0843104 -0.0792152 -0.118852 -0.114932 -0.0792152 -0.074262 -0.114932 -0.110842 -0.114932 -0.110842 -0.150842 -0.147238 0 0 -0.0099529 -0.00656186 -0.0099529 -0.00656186 -0.0345189 -0.0237698 0.0508957 0.0345955 0.0900199 0.0697475 0.0900199 0.0697475 0.131312 0.10679 0.106475 0.0900199 0.150767 0.131312 0.0645619 0.0508957 0.106475 0.0900199 -0.159359 -0.140824 -0.0807814 -0.0676528 -0.140824 -0.116784 -0.0676528 -0.0529167 -0.0676528 -0.0529167 0 0 -0.0807814 -0.0676528 0 0 0.186753 0.186346 0.23167 0.233599 0.0249343 0.0138039 0.0645619 0.0508957 -0.0128301 -0.0216516 0.0249343 0.0138039 0.0138039 0.00112938 0.0508957 0.0345955 -0.129318 -0.152991 -0.062358 -0.0785368 -0.062358 -0.0785368 0 0 -0.0551819 -0.0526945 -0.0938609 -0.0912086 -0.0963304 -0.0938609 -0.135365 -0.133451 -0.0581177 -0.0551819 -0.0963304 -0.0938609 -0.0426545 -0.00488446 -0.0367292 0.0019696 -0.0792152 -0.0426545 -0.074262 -0.0367292 -0.0843104 -0.0491303 -0.0792152 -0.0426545 -0.0491303 -0.0128301 -0.0426545 -0.00488446 -0.250695 -0.173915 -0.247116 -0.167947 -0.247116 -0.167947 -0.233034 -0.152991 -0.194554 -0.154763 -0.189342 -0.150842 -0.189342 -0.150842 -0.185303 -0.147238 -0.0581177 -0.0198852 -0.0551819 -0.0170229 -0.0198852 0.0188619 -0.0170229 0.0213044 -0.0170229 0.0213044 -0.0146847 0.0230915 -0.0551819 -0.0170229 -0.0526945 -0.0146847 0.0585441 0.0994954 0.0602055 0.0997933 0.0602055 0.0997933 0.0609086 0.0986113 0.0213044 0.0602055 0.0230915 0.0609086 0.0188619 0.0585441 0.0213044 0.0602055 -0.0491303 -0.0558929 -0.0128301 -0.0216516 -0.0843104 -0.0894264 -0.0491303 -0.0558929 0.141776 0.184512 0.139656 0.179221 0.0994954 0.141776 0.0997933 0.139656 -0.0128301 0.0249343 -0.00488446 0.0344068 0.0249343 0.0645619 0.0344068 0.0756611 0.0344068 0.0756611 0.0421521 0.0843114 -0.00488446 0.0344068 0.0019696 0.0421521 0.0951868 0.0907265 0.139779 0.135621 0.0907265 0.0843114 0.135621 0.128934 0.135621 0.128934 0.182855 0.176057 0.139779 0.135621 0.186346 0.182855 -0.159359 -0.0807814 -0.170877 -0.0900181 -0.0807814 0 -0.0900181 0 -0.0900181 0 -0.0931541 0 -0.170877 -0.0900181 -0.173915 -0.0931541 0.186346 0.182855 0.233599 0.231235 0.182855 0.176057 0.231235 0.224647 -0.0136771 -0.00554963 0 0 -0.0246479 -0.0136771 0 0 -0.116784 -0.0907279 -0.0529167 -0.0376481 -0.0376481 -0.0246479 0 0 -0.0529167 -0.0376481 0 0 0.165518 0.213311 0.176057 0.224647 0.150767 0.196737 0.165518 0.213311 -0.194177 -0.154619 -0.146312 -0.111789 -0.146312 -0.111789 -0.0907279 -0.0654662 -0.178949 -0.146312 -0.116784 -0.0907279 -0.207683 -0.178949 -0.140824 -0.116784 -0.244756 -0.170877 -0.250695 -0.173915 -0.00421026 0.000471285 -0.0115067 -0.000666795 0.000471285 0 -0.000666795 0 -0.000666795 0 -0.00554963 0 0.150767 0.131312 0.196737 0.174432 0.131312 0.10679 0.174432 0.146032 -0.0792555 -0.0511147 -0.0427243 -0.0245509 -0.111789 -0.0792555 -0.0654662 -0.0427243 -0.154619 -0.115616 -0.111789 -0.0792555 -0.115616 -0.079228 -0.0792555 -0.0511147 -0.187083 -0.165981 -0.17262 -0.151951 -0.165981 -0.145384 -0.151951 -0.1305 -0.17262 -0.151951 -0.154619 -0.135118 -0.151951 -0.1305 -0.135118 -0.115616 -0.202988 -0.1831 -0.197263 -0.176571 -0.1831 -0.162871 -0.176571 -0.154128 -0.197263 -0.176571 -0.187083 -0.165981 -0.176571 -0.154128 -0.165981 -0.145384 0.193368 0.171932 0.194408 0.175324 0.171932 0.149303 0.175324 0.155072 0.194408 0.175324 0.192267 0.175527 0.175324 0.155072 0.175527 0.157632 0.231721 0.213358 0.228247 0.212103 0.213358 0.193368 0.212103 0.194408 0.228247 0.212103 0.221581 0.207663 0.212103 0.194408 0.207663 0.192267 -0.206092 -0.168662 -0.179992 -0.144224 -0.168662 -0.132024 -0.144224 -0.110296 -0.179992 -0.144224 -0.152527 -0.119462 -0.144224 -0.110296 -0.119462 -0.0889687 -0.250825 -0.213101 -0.229911 -0.191868 -0.213101 -0.173522 -0.191868 -0.15335 -0.229911 -0.191868 -0.206092 -0.168662 -0.191868 -0.15335 -0.168662 -0.132024 -0.173522 -0.135127 -0.15335 -0.116874 -0.135127 -0.0999961 -0.116874 -0.0841436 -0.15335 -0.116874 -0.132024 -0.0981531 -0.116874 -0.0841436 -0.0981531 -0.0683251 -0.132024 -0.0981531 -0.110296 -0.079619 -0.0981531 -0.0683251 -0.079619 -0.0530919 -0.110296 -0.079619 -0.0889687 -0.0619442 -0.079619 -0.0530919 -0.0619442 -0.0389705 -0.269627 -0.292514 -0.270964 -0.294214 -0.292514 -0.312296 -0.294214 -0.314416 -0.270964 -0.294214 -0.272529 -0.296006 -0.294214 -0.314416 -0.296006 -0.316328 -0.272529 -0.296006 -0.274445 -0.29794 -0.296006 -0.316328 -0.29794 -0.318068 -0.274445 -0.29794 -0.276701 -0.300036 -0.29794 -0.318068 -0.300036 -0.319591 -0.224863 -0.248317 -0.226422 -0.24996 -0.248317 -0.272529 -0.24996 -0.274445 -0.226422 -0.24996 -0.22798 -0.252236 -0.24996 -0.274445 -0.252236 -0.276701 -0.222544 -0.245897 -0.223704 -0.246917 -0.245897 -0.269627 -0.246917 -0.270964 -0.223704 -0.246917 -0.224863 -0.248317 -0.246917 -0.270964 -0.248317 -0.272529 -0.0832259 -0.0792553 -0.101651 -0.0967167 -0.0792553 -0.0741306 -0.0967167 -0.0903686 -0.101651 -0.0967167 -0.11985 -0.113768 -0.0967167 -0.0903686 -0.113768 -0.106038 -0.0464069 -0.0439888 -0.0647681 -0.0616223 -0.0439888 -0.0409452 -0.0616223 -0.0575874 -0.0647681 -0.0616223 -0.0832259 -0.0792553 -0.0616223 -0.0575874 -0.0792553 -0.0741306 -0.0409452 -0.0371913 -0.0575874 -0.052587 -0.0371913 -0.0326991 -0.052587 -0.0466252 -0.0575874 -0.052587 -0.0741306 -0.0677933 -0.052587 -0.0466252 -0.0677933 -0.0602912 -0.0741306 -0.0677933 -0.0903686 -0.0825838 -0.0677933 -0.0602912 -0.0825838 -0.0734654 -0.0903686 -0.0825838 -0.106038 -0.0966839 -0.0825838 -0.0734654 -0.0966839 -0.0858805 -0.123822 -0.141876 -0.126955 -0.145484 -0.141876 -0.160991 -0.145484 -0.165339 -0.126955 -0.145484 -0.131036 -0.150277 -0.145484 -0.165339 -0.150277 -0.1709 -0.0894264 -0.106492 -0.0925154 -0.109402 -0.106492 -0.123822 -0.109402 -0.126955 -0.0925154 -0.109402 -0.0959231 -0.113019 -0.109402 -0.126955 -0.113019 -0.131036 -0.0843104 -0.101581 -0.0868684 -0.103917 -0.101581 -0.118852 -0.103917 -0.12131 -0.0868684 -0.103917 -0.0894264 -0.106492 -0.103917 -0.12131 -0.106492 -0.123822 -0.118852 -0.136807 -0.12131 -0.139011 -0.136807 -0.154763 -0.139011 -0.157707 -0.12131 -0.139011 -0.123822 -0.141876 -0.139011 -0.157707 -0.141876 -0.160991 0.101907 0.0781517 0.112292 0.0905875 0.0781517 0.0552865 0.0905875 0.0694108 0.112292 0.0905875 0.119398 0.0996998 0.0905875 0.0694108 0.0996998 0.080155 0.149303 0.125815 0.155072 0.13394 0.125815 0.101907 0.13394 0.112292 0.155072 0.13394 0.157632 0.138824 0.13394 0.112292 0.138824 0.119398 0 0 -0.00270708 -0.000739483 0 0 -0.000739483 0.000434368 -0.00270708 -0.000739483 -0.00767486 -0.00142318 -0.000739483 0.000434368 -0.00142318 0.00258497 -0.00767486 -0.00142318 -0.00980519 0.000501715 -0.00142318 0.00258497 0.000501715 0.00763812 -0.00980519 0.000501715 -0.0067127 0.00658586 0.000501715 0.00763812 0.00658586 0.0163029 -0.220013 -0.220465 -0.197859 -0.198524 -0.220465 -0.221097 -0.198524 -0.199504 -0.197859 -0.198524 -0.176182 -0.177046 -0.198524 -0.199504 -0.177046 -0.177911 -0.0423801 -0.0520327 -0.0517543 -0.063199 -0.0520327 -0.0609245 -0.063199 -0.073863 -0.0517543 -0.063199 -0.0602912 -0.0734654 -0.063199 -0.073863 -0.0734654 -0.0858805 -0.0216889 -0.0321948 -0.0274986 -0.0397791 -0.0321948 -0.0423801 -0.0397791 -0.0517543 -0.0274986 -0.0397791 -0.0326991 -0.0466252 -0.0397791 -0.0517543 -0.0466252 -0.0602912 -0.00940946 -0.0160845 -0.0155021 -0.0241358 -0.0160845 -0.0225208 -0.0241358 -0.0324709 -0.0155021 -0.0241358 -0.0216889 -0.0321948 -0.0241358 -0.0324709 -0.0321948 -0.0423801 -0.0225208 -0.0285538 -0.0324709 -0.0403172 -0.0285538 -0.0340463 -0.0403172 -0.0474797 -0.0324709 -0.0403172 -0.0423801 -0.0520327 -0.0403172 -0.0474797 -0.0520327 -0.0609245 0.263126 0.248334 0.255523 0.242738 0.248334 0.231721 0.242738 0.228247 0.255523 0.242738 0.244729 0.233946 0.242738 0.228247 0.233946 0.221581 0.287158 0.276067 0.275939 0.266586 0.276067 0.263126 0.266586 0.255523 0.275939 0.266586 0.261597 0.253936 0.266586 0.255523 0.253936 0.244729 -0.174761 -0.154106 -0.173807 -0.152982 -0.154106 -0.133451 -0.152982 -0.132299 -0.173807 -0.152982 -0.17249 -0.151766 -0.152982 -0.132299 -0.151766 -0.131271 -0.218042 -0.19649 -0.216064 -0.195225 -0.19649 -0.174761 -0.195225 -0.173807 -0.216064 -0.195225 -0.212979 -0.193111 -0.195225 -0.173807 -0.193111 -0.17249 -0.220013 -0.197859 -0.219252 -0.197229 -0.197859 -0.176182 -0.197229 -0.175471 -0.219252 -0.197229 -0.218042 -0.19649 -0.197229 -0.175471 -0.19649 -0.174761 -0.183094 -0.218928 -0.162051 -0.199635 -0.218928 -0.24849 -0.199635 -0.233346 -0.162051 -0.199635 -0.138503 -0.175757 -0.199635 -0.233346 -0.175757 -0.211228 0.112175 0.131031 0.129705 0.149416 0.131031 0.152084 0.149416 0.170857 0.129705 0.149416 0.146032 0.166498 0.149416 0.170857 0.166498 0.188244 0.0778965 0.0946421 0.0928483 0.110988 0.0946421 0.112175 0.110988 0.129705 0.0928483 0.110988 0.10679 0.126411 0.110988 0.129705 0.126411 0.146032 0.0606979 0.078399 0.0598373 0.0767475 0.078399 0.0957073 0.0767475 0.0931067 0.0598373 0.0767475 0.0583719 0.0743647 0.0767475 0.0931067 0.0743647 0.089646 0.0245428 0.042731 0.0248358 0.0425009 0.042731 0.0606979 0.0425009 0.0598373 0.0248358 0.0425009 0.0248065 0.0418153 0.0425009 0.0598373 0.0418153 0.0583719 0.0230915 0.042 0.0240349 0.0425405 0.042 0.0609086 0.0425405 0.0611014 0.0240349 0.0425405 0.0245428 0.042731 0.0425405 0.0611014 0.042731 0.0606979 0.0609086 0.0797599 0.0611014 0.0793685 0.0797599 0.0986113 0.0793685 0.097576 0.0611014 0.0793685 0.0606979 0.078399 0.0793685 0.097576 0.078399 0.0957073 -0.220013 -0.219252 -0.242504 -0.241112 -0.219252 -0.218042 -0.241112 -0.239018 -0.242504 -0.241112 -0.264149 -0.261716 -0.241112 -0.239018 -0.261716 -0.258297 -0.218042 -0.216064 -0.239018 -0.235886 -0.216064 -0.212979 -0.235886 -0.231355 -0.239018 -0.235886 -0.258297 -0.253555 -0.235886 -0.231355 -0.253555 -0.247158 -0.258297 -0.253555 -0.274464 -0.267722 -0.253555 -0.247158 -0.267722 -0.259142 -0.274464 -0.267722 -0.28588 -0.276927 -0.267722 -0.259142 -0.276927 -0.266054 -0.264149 -0.261716 -0.28356 -0.27964 -0.261716 -0.258297 -0.27964 -0.274464 -0.28356 -0.27964 -0.298839 -0.293102 -0.27964 -0.274464 -0.293102 -0.28588 -0.0067127 0.00658586 0.00212017 0.0171607 0.00658586 0.0163029 0.0171607 0.0285581 0.00212017 0.0171607 0.0161243 0.0317588 0.0171607 0.0285581 0.0317588 0.0438314 0.0161243 0.0317588 0.0342421 0.0495022 0.0317588 0.0438314 0.0495022 0.0613027 0.0342421 0.0495022 0.0552865 0.0694108 0.0495022 0.0613027 0.0694108 0.080155 -0.0156888 -0.030673 -0.0149472 -0.0294279 -0.030673 -0.0474123 -0.0294279 -0.0456761 -0.0149472 -0.0294279 -0.0136753 -0.0273121 -0.0294279 -0.0456761 -0.0273121 -0.0427538 0 -0.00375282 0 -0.00315924 -0.00375282 -0.0136753 -0.00315924 -0.0122334 0 -0.00315924 0 -0.0023878 -0.00315924 -0.0122334 -0.0023878 -0.010229 0 -0.00435672 0 -0.0040836 -0.00435672 -0.0156888 -0.0040836 -0.0149472 0 -0.0040836 0 -0.00375282 -0.0040836 -0.0149472 -0.00375282 -0.0136753 -0.194554 -0.198899 -0.174658 -0.177471 -0.198899 -0.203701 -0.177471 -0.18156 -0.174658 -0.177471 -0.154763 -0.157707 -0.177471 -0.18156 -0.157707 -0.160991 -0.241314 -0.245983 -0.217408 -0.221951 -0.245983 -0.250879 -0.221951 -0.227164 -0.217408 -0.221951 -0.194554 -0.198899 -0.221951 -0.227164 -0.198899 -0.203701 -0.250879 -0.255409 -0.227164 -0.23279 -0.255409 -0.258481 -0.23279 -0.238093 -0.227164 -0.23279 -0.203701 -0.209387 -0.23279 -0.238093 -0.209387 -0.215593 -0.203701 -0.209387 -0.18156 -0.186684 -0.209387 -0.215593 -0.186684 -0.192802 -0.18156 -0.186684 -0.160991 -0.165339 -0.186684 -0.192802 -0.165339 -0.1709 -0.306427 -0.283099 -0.29118 -0.264195 -0.283099 -0.250825 -0.264195 -0.229911 -0.29118 -0.264195 -0.271585 -0.241518 -0.264195 -0.229911 -0.241518 -0.206092 -0.271585 -0.241518 -0.247532 -0.21541 -0.241518 -0.206092 -0.21541 -0.179992 -0.247532 -0.21541 -0.219413 -0.186629 -0.21541 -0.179992 -0.186629 -0.152527 -0.303647 -0.293053 -0.289464 -0.273142 -0.293053 -0.271585 -0.273142 -0.247532 -0.289464 -0.273142 -0.26937 -0.247953 -0.273142 -0.247532 -0.247953 -0.219413 -0.318351 -0.318345 -0.31283 -0.307908 -0.318345 -0.306427 -0.307908 -0.29118 -0.31283 -0.307908 -0.303647 -0.293053 -0.307908 -0.29118 -0.293053 -0.271585 -0.212979 -0.193111 -0.208416 -0.189841 -0.193111 -0.17249 -0.189841 -0.170149 -0.208416 -0.189841 -0.202047 -0.185031 -0.189841 -0.170149 -0.185031 -0.166551 -0.17249 -0.151766 -0.170149 -0.149996 -0.151766 -0.131271 -0.149996 -0.129782 -0.170149 -0.149996 -0.166551 -0.147249 -0.149996 -0.129782 -0.147249 -0.127604 -0.166551 -0.147249 -0.161354 -0.143192 -0.147249 -0.127604 -0.143192 -0.124388 -0.161354 -0.143192 -0.154309 -0.137534 -0.143192 -0.124388 -0.137534 -0.11985 -0.202047 -0.185031 -0.193615 -0.178376 -0.185031 -0.166551 -0.178376 -0.161354 -0.193615 -0.178376 -0.182993 -0.169665 -0.178376 -0.161354 -0.169665 -0.154309 -0.250825 -0.268506 -0.213101 -0.231831 -0.268506 -0.282878 -0.231831 -0.247735 -0.213101 -0.231831 -0.173522 -0.191929 -0.231831 -0.247735 -0.191929 -0.208172 -0.282878 -0.294031 -0.247735 -0.26065 -0.294031 -0.302242 -0.26065 -0.270527 -0.247735 -0.26065 -0.208172 -0.221899 -0.26065 -0.270527 -0.221899 -0.233034 -0.208172 -0.221899 -0.167641 -0.181653 -0.221899 -0.233034 -0.181653 -0.193013 -0.167641 -0.181653 -0.129318 -0.141155 -0.181653 -0.193013 -0.141155 -0.152991 -0.173522 -0.191929 -0.135127 -0.15218 -0.191929 -0.208172 -0.15218 -0.167641 -0.135127 -0.15218 -0.0999961 -0.115389 -0.15218 -0.167641 -0.115389 -0.129318 -0.0506805 -0.0688543 -0.0315576 -0.0457506 -0.0688543 -0.0889687 -0.0457506 -0.0619442 -0.0315576 -0.0457506 -0.0158078 -0.0264228 -0.0457506 -0.0619442 -0.0264228 -0.0389705 -0.0222244 -0.0350174 -0.0104818 -0.0197367 -0.0350174 -0.0506805 -0.0197367 -0.0315576 -0.0104818 -0.0197367 -0.00113602 -0.00735258 -0.0197367 -0.0315576 -0.00735258 -0.0158078 -0.0522389 -0.0735981 -0.0361331 -0.0529739 -0.0735981 -0.0981203 -0.0529739 -0.0729218 -0.0361331 -0.0529739 -0.0222244 -0.0350174 -0.0529739 -0.0729218 -0.0350174 -0.0506805 -0.0981203 -0.124827 -0.0729218 -0.0953672 -0.124827 -0.152527 -0.0953672 -0.119462 -0.0729218 -0.0953672 -0.0506805 -0.0688543 -0.0953672 -0.119462 -0.0688543 -0.0889687 -0.137445 -0.17748 -0.121576 -0.162352 -0.17748 -0.211873 -0.162352 -0.200241 -0.121576 -0.162352 -0.104311 -0.143827 -0.162352 -0.200241 -0.143827 -0.183094 -0.104311 -0.143827 -0.0868599 -0.123303 -0.143827 -0.183094 -0.123303 -0.162051 -0.0868599 -0.123303 -0.0702477 -0.102443 -0.123303 -0.162051 -0.102443 -0.138503 -0.0400804 -0.0687181 -0.0316501 -0.0556896 -0.0687181 -0.104311 -0.0556896 -0.0868599 -0.0316501 -0.0556896 -0.0242474 -0.0439349 -0.0556896 -0.0868599 -0.0439349 -0.0702477 -0.0597018 -0.0962984 -0.0495415 -0.0825577 -0.0962984 -0.137445 -0.0825577 -0.121576 -0.0495415 -0.0825577 -0.0400804 -0.0687181 -0.0825577 -0.121576 -0.0687181 -0.104311 -0.200868 -0.184136 -0.204125 -0.185687 -0.184136 -0.165865 -0.185687 -0.166096 -0.204125 -0.185687 -0.202988 -0.1831 -0.185687 -0.166096 -0.1831 -0.162871 -0.182993 -0.170206 -0.193621 -0.178822 -0.170206 -0.155437 -0.178822 -0.162186 -0.193621 -0.178822 -0.200868 -0.184136 -0.178822 -0.162186 -0.184136 -0.165865 -0.155437 -0.138982 -0.162186 -0.144133 -0.138982 -0.121903 -0.144133 -0.124257 -0.162186 -0.144133 -0.165865 -0.146289 -0.144133 -0.124257 -0.146289 -0.126611 -0.165865 -0.146289 -0.166096 -0.145536 -0.146289 -0.126611 -0.145536 -0.123372 -0.166096 -0.145536 -0.162871 -0.141503 -0.145536 -0.123372 -0.141503 -0.120134 0.0461721 0.0618024 0.0583174 0.0754297 0.0618024 0.0778965 0.0754297 0.0928483 0.0583174 0.0754297 0.0697475 0.0882687 0.0754297 0.0928483 0.0882687 0.10679 0.0160013 0.0309398 0.0255555 0.0418579 0.0309398 0.0461721 0.0418579 0.0583174 0.0255555 0.0418579 0.0345955 0.0521715 0.0418579 0.0583174 0.0521715 0.0697475 0.00054317 0.00235561 -0.000548379 0.00102466 0.00235561 0.00451484 0.00102466 0.00270299 -0.000548379 0.00102466 0 0 0.00102466 0.00270299 0 0 0 -9.91131e-06 0 -0.00150096 -9.91131e-06 0.00054317 -0.00150096 -0.000548379 0 -0.00150096 0 0 -0.00150096 -0.000548379 0 0 0 0.000514052 0 0.00037057 0.000514052 0.00178658 0.00037057 0.0014998 0 0.00037057 0 -9.91131e-06 0.00037057 0.0014998 -9.91131e-06 0.00054317 0.00178658 0.00335023 0.0014998 0.00324061 0.00335023 0.00475104 0.00324061 0.0052174 0.0014998 0.00324061 0.00054317 0.00235561 0.00324061 0.0052174 0.00235561 0.00451484 -0.211228 -0.243024 -0.184531 -0.217983 -0.243024 -0.26937 -0.217983 -0.247953 -0.184531 -0.217983 -0.155266 -0.188182 -0.217983 -0.247953 -0.188182 -0.219413 -0.155266 -0.188182 -0.125889 -0.156316 -0.188182 -0.219413 -0.156316 -0.186629 -0.125889 -0.156316 -0.0981203 -0.124827 -0.156316 -0.186629 -0.124827 -0.152527 -0.0915798 -0.122431 -0.0707056 -0.0968721 -0.122431 -0.155266 -0.0968721 -0.125889 -0.0707056 -0.0968721 -0.0522389 -0.0735981 -0.0968721 -0.125889 -0.0735981 -0.0981203 -0.138503 -0.175757 -0.114502 -0.149281 -0.175757 -0.211228 -0.149281 -0.184531 -0.114502 -0.149281 -0.0915798 -0.122431 -0.149281 -0.184531 -0.122431 -0.155266 -0.134276 -0.120806 -0.121463 -0.109768 -0.120806 -0.106038 -0.109768 -0.0966839 -0.121463 -0.109768 -0.107212 -0.0972365 -0.109768 -0.0966839 -0.0972365 -0.0858805 -0.155437 -0.145982 -0.138982 -0.131359 -0.145982 -0.134276 -0.131359 -0.121463 -0.138982 -0.131359 -0.12