# vtk DataFile Version 3.0
#This file was generated by the deal.II library on 2020/12/27 at 13:44:03
ASCII
DATASET UNSTRUCTURED_GRID

POINTS 2304 double
0.125 0.124999 0
0.125 0.0833324 0
0.166666 0.124998 0
0.166667 0.0833322 0
0.125 0.166665 0
0.125 0.124999 0
0.166666 0.166664 0
0.166666 0.124998 0
0.0833332 0.166666 0
0.0833332 0.124999 0
0.125 0.166665 0
0.125 0.124999 0
0.0833332 0.124999 0
0.0833333 0.0833327 0
0.125 0.124999 0
0.125 0.0833324 0
0.458332 0.541659 0
0.499999 0.541659 0
0.458332 0.583326 0
0.499999 0.583326 0
0.416666 0.541659 0
0.458332 0.541659 0
0.416666 0.583326 0
0.458332 0.583326 0
0.416666 0.499992 0
0.458332 0.499992 0
0.416666 0.541659 0
0.458332 0.541659 0
0.458332 0.499992 0
0.499999 0.499992 0
0.458332 0.541659 0
0.499999 0.541659 0
0.541666 0.624993 0
0.583332 0.624993 0
0.541666 0.66666 0
0.583332 0.66666 0
0.499999 0.624993 0
0.541666 0.624993 0
0.499999 0.66666 0
0.541666 0.66666 0
0.499999 0.583326 0
0.541666 0.583326 0
0.499999 0.624993 0
0.541666 0.624993 0
0.541666 0.583326 0
0.583332 0.583326 0
0.541666 0.624993 0
0.583332 0.624993 0
0.499999 0.541659 0
0.541666 0.541659 0
0.499999 0.583326 0
0.541666 0.583326 0
0.499999 0.499992 0
0.541666 0.499992 0
0.499999 0.541659 0
0.541666 0.541659 0
0.541666 0.499992 0
0.583332 0.499992 0
0.541666 0.541659 0
0.583332 0.541659 0
0.541666 0.541659 0
0.583332 0.541659 0
0.541666 0.583326 0
0.583332 0.583326 0
0.499999 0.458326 0
0.499999 0.416659 0
0.541666 0.458326 0
0.541666 0.416659 0
0.541666 0.458326 0
0.541666 0.416659 0
0.583332 0.458326 0
0.583332 0.416659 0
0.541666 0.499992 0
0.541666 0.458326 0
0.583332 0.499992 0
0.583332 0.458326 0
0.499999 0.499992 0
0.499999 0.458326 0
0.541666 0.499992 0
0.541666 0.458326 0
0.208333 0.20833 0
0.166666 0.208331 0
0.208333 0.166664 0
0.166666 0.166664 0
0.25 0.20833 0
0.208333 0.20833 0
0.25 0.166664 0
0.208333 0.166664 0
0.249999 0.249996 0
0.208333 0.249996 0
0.25 0.20833 0
0.208333 0.20833 0
0.208333 0.249996 0
0.166666 0.249997 0
0.208333 0.20833 0
0.166666 0.208331 0
0.291666 0.874997 0
0.25 0.874998 0
0.291666 0.83333 0
0.25 0.83333 0
0.333333 0.874997 0
0.291666 0.874997 0
0.333333 0.83333 0
0.291666 0.83333 0
0.333333 0.916665 0
0.291666 0.916665 0
0.333333 0.874997 0
0.291666 0.874997 0
0.291666 0.916665 0
0.25 0.916665 0
0.291666 0.874997 0
0.25 0.874998 0
0.499999 0.374993 0
0.541666 0.374993 0
0.499999 0.416659 0
0.541666 0.416659 0
0.499999 0.333326 0
0.541666 0.333326 0
0.499999 0.374993 0
0.541666 0.374993 0
0.541666 0.333326 0
0.583332 0.333327 0
0.541666 0.374993 0
0.583332 0.374993 0
0.541666 0.374993 0
0.583332 0.374993 0
0.541666 0.416659 0
0.583332 0.416659 0
0.458332 0.499992 0
0.458332 0.458326 0
0.499999 0.499992 0
0.499999 0.458326 0
0.416666 0.499992 0
0.416666 0.458326 0
0.458332 0.499992 0
0.458332 0.458326 0
0.416666 0.458326 0
0.416666 0.416659 0
0.458332 0.458326 0
0.458332 0.416659 0
0.458332 0.458326 0
0.458332 0.416659 0
0.499999 0.458326 0
0.499999 0.416659 0
0.708333 0.166663 0
0.708333 0.124997 0
0.75 0.166664 0
0.75 0.124998 0
0.666666 0.166663 0
0.666666 0.124997 0
0.708333 0.166663 0
0.708333 0.124997 0
0.666666 0.124997 0
0.666666 0.0833314 0
0.708333 0.124997 0
0.708333 0.0833316 0
0.708333 0.124997 0
0.708333 0.0833316 0
0.75 0.124998 0
0.75 0.0833317 0
0.499999 0.29166 0
0.499999 0.249994 0
0.541666 0.29166 0
0.541666 0.249994 0
0.541666 0.29166 0
0.541666 0.249994 0
0.583333 0.29166 0
0.583333 0.249994 0
0.541666 0.333326 0
0.541666 0.29166 0
0.583332 0.333327 0
0.583333 0.29166 0
0.499999 0.333326 0
0.499999 0.29166 0
0.541666 0.333326 0
0.541666 0.29166 0
0.125 0.208331 0
0.125 0.166665 0
0.166666 0.208331 0
0.166666 0.166664 0
0.125 0.249998 0
0.125 0.208331 0
0.166666 0.249997 0
0.166666 0.208331 0
0.0833331 0.249998 0
0.0833331 0.208332 0
0.125 0.249998 0
0.125 0.208331 0
0.0833331 0.208332 0
0.0833332 0.166666 0
0.125 0.208331 0
0.125 0.166665 0
0.875 0.791665 0
0.875 0.833332 0
0.833333 0.791664 0
0.833333 0.833331 0
0.875 0.749998 0
0.875 0.791665 0
0.833333 0.749997 0
0.833333 0.791664 0
0.916666 0.749998 0
0.916666 0.791665 0
0.875 0.749998 0
0.875 0.791665 0
0.916666 0.791665 0
0.916667 0.833332 0
0.875 0.791665 0
0.875 0.833332 0
0.249999 0.458327 0
0.208333 0.458328 0
0.249999 0.416661 0
0.208333 0.416662 0
0.249999 0.499994 0
0.208333 0.499995 0
0.249999 0.458327 0
0.208333 0.458328 0
0.208333 0.499995 0
0.166666 0.499996 0
0.208333 0.458328 0
0.166666 0.458329 0
0.208333 0.458328 0
0.166666 0.458329 0
0.208333 0.416662 0
0.166666 0.416662 0
0.708333 0.458327 0
0.708333 0.41666 0
0.749999 0.458328 0
0.749999 0.416661 0
0.708332 0.499994 0
0.708333 0.458327 0
0.749999 0.499994 0
0.749999 0.458328 0
0.666666 0.499993 0
0.666666 0.458327 0
0.708332 0.499994 0
0.708333 0.458327 0
0.666666 0.458327 0
0.666666 0.41666 0
0.708333 0.458327 0
0.708333 0.41666 0
0.416666 0.583326 0
0.458332 0.583326 0
0.416666 0.624993 0
0.458332 0.624993 0
0.458332 0.583326 0
0.499999 0.583326 0
0.458332 0.624993 0
0.499999 0.624993 0
0.458332 0.624993 0
0.499999 0.624993 0
0.458332 0.66666 0
0.499999 0.66666 0
0.416666 0.624993 0
0.458332 0.624993 0
0.416666 0.66666 0
0.458332 0.66666 0
0.458333 0.708327 0
0.499999 0.708327 0
0.458333 0.749994 0
0.499999 0.749994 0
0.416666 0.708327 0
0.458333 0.708327 0
0.416666 0.749994 0
0.458333 0.749994 0
0.416666 0.66666 0
0.458332 0.66666 0
0.416666 0.708327 0
0.458333 0.708327 0
0.458332 0.66666 0
0.499999 0.66666 0
0.458333 0.708327 0
0.499999 0.708327 0
0.416667 0.958332 0
0.458333 0.958332 0
0.416667 1 0
0.458333 1 0
0.416666 0.916665 0
0.458333 0.916665 0
0.416667 0.958332 0
0.458333 0.958332 0
0.458333 0.916665 0
0.5 0.916665 0
0.458333 0.958332 0
0.5 0.958332 0
0.458333 0.958332 0
0.5 0.958332 0
0.458333 1 0
0.5 1 0
0.25 0.916665 0
0.208333 0.916665 0
0.25 0.874998 0
0.208333 0.874998 0
0.208333 0.916665 0
0.166667 0.916666 0
0.208333 0.874998 0
0.166666 0.874998 0
0.208333 0.874998 0
0.166666 0.874998 0
0.208333 0.833331 0
0.166666 0.833331 0
0.25 0.874998 0
0.208333 0.874998 0
0.25 0.83333 0
0.208333 0.833331 0
0.0416666 0.916666 0
0.0416666 0.875 0
0.0833333 0.916666 0
0.0833332 0.874999 0
0 0.916667 0
0 0.875 0
0.0416666 0.916666 0
0.0416666 0.875 0
0 0.875 0
0 0.833333 0
0.0416666 0.875 0
0.0416666 0.833333 0
0.0416666 0.875 0
0.0416666 0.833333 0
0.0833332 0.874999 0
0.0833332 0.833332 0
0.458332 0.333326 0
0.499999 0.333326 0
0.458332 0.374993 0
0.499999 0.374993 0
0.458332 0.374993 0
0.499999 0.374993 0
0.458332 0.416659 0
0.499999 0.416659 0
0.416666 0.374993 0
0.458332 0.374993 0
0.416666 0.416659 0
0.458332 0.416659 0
0.416666 0.333327 0
0.458332 0.333326 0
0.416666 0.374993 0
0.458332 0.374993 0
0.125 0.45833 0
0.125 0.416663 0
0.166666 0.458329 0
0.166666 0.416662 0
0.125 0.499997 0
0.125 0.45833 0
0.166666 0.499996 0
0.166666 0.458329 0
0.083333 0.499998 0
0.083333 0.458331 0
0.125 0.499997 0
0.125 0.45833 0
0.083333 0.458331 0
0.083333 0.416664 0
0.125 0.45833 0
0.125 0.416663 0
0.375 0.874997 0
0.333333 0.874997 0
0.374999 0.83333 0
0.333333 0.83333 0
0.416666 0.874997 0
0.375 0.874997 0
0.416666 0.833329 0
0.374999 0.83333 0
0.416666 0.916665 0
0.375 0.916665 0
0.416666 0.874997 0
0.375 0.874997 0
0.375 0.916665 0
0.333333 0.916665 0
0.375 0.874997 0
0.333333 0.874997 0
0.374999 0.374993 0
0.374999 0.416659 0
0.333332 0.374993 0
0.333332 0.41666 0
0.374999 0.333327 0
0.374999 0.374993 0
0.333333 0.333327 0
0.333332 0.374993 0
0.416666 0.333327 0
0.416666 0.374993 0
0.374999 0.333327 0
0.374999 0.374993 0
0.416666 0.374993 0
0.416666 0.416659 0
0.374999 0.374993 0
0.374999 0.416659 0
0.791666 0.333329 0
0.749999 0.333328 0
0.791666 0.291663 0
0.749999 0.291662 0
0.791666 0.291663 0
0.749999 0.291662 0
0.791666 0.249996 0
0.749999 0.249996 0
0.833333 0.291663 0
0.791666 0.291663 0
0.833333 0.249997 0
0.791666 0.249996 0
0.833333 0.33333 0
0.791666 0.333329 0
0.833333 0.291663 0
0.791666 0.291663 0
0.833333 0.749997 0
0.833333 0.791664 0
0.791666 0.749997 0
0.791666 0.791664 0
0.833333 0.791664 0
0.833333 0.833331 0
0.791666 0.791664 0
0.791666 0.833331 0
0.791666 0.791664 0
0.791666 0.833331 0
0.75 0.791663 0
0.75 0.83333 0
0.791666 0.749997 0
0.791666 0.791664 0
0.749999 0.749996 0
0.75 0.791663 0
0.291666 0.624994 0
0.291666 0.666661 0
0.249999 0.624995 0
0.249999 0.666662 0
0.291666 0.583327 0
0.291666 0.624994 0
0.249999 0.583328 0
0.249999 0.624995 0
0.333332 0.583326 0
0.333332 0.624994 0
0.291666 0.583327 0
0.291666 0.624994 0
0.333332 0.624994 0
0.333333 0.666661 0
0.291666 0.624994 0
0.291666 0.666661 0
0.416666 0.333327 0
0.374999 0.333327 0
0.416666 0.29166 0
0.374999 0.291661 0
0.374999 0.333327 0
0.333333 0.333327 0
0.374999 0.291661 0
0.333333 0.291661 0
0.374999 0.291661 0
0.333333 0.291661 0
0.374999 0.249995 0
0.333333 0.249995 0
0.416666 0.29166 0
0.374999 0.291661 0
0.416666 0.249994 0
0.374999 0.249995 0
0.624999 0.66666 0
0.624999 0.708328 0
0.583332 0.66666 0
0.583333 0.708327 0
0.666666 0.666661 0
0.666666 0.708328 0
0.624999 0.66666 0
0.624999 0.708328 0
0.666666 0.708328 0
0.666666 0.749995 0
0.624999 0.708328 0
0.624999 0.749995 0
0.624999 0.708328 0
0.624999 0.749995 0
0.583333 0.708327 0
0.583333 0.749995 0
0.875 0.541664 0
0.875 0.58333 0
0.833333 0.541663 0
0.833333 0.583329 0
0.875 0.499997 0
0.875 0.541664 0
0.833333 0.499996 0
0.833333 0.541663 0
0.916666 0.499998 0
0.916666 0.541665 0
0.875 0.499997 0
0.875 0.541664 0
0.916666 0.541665 0
0.916666 0.583331 0
0.875 0.541664 0
0.875 0.58333 0
0.958333 0.916666 0
0.916667 0.916666 0
0.958333 0.875 0
0.916667 0.874999 0
0.958333 0.875 0
0.916667 0.874999 0
0.958333 0.833333 0
0.916667 0.833332 0
1 0.875 0
0.958333 0.875 0
1 0.833333 0
0.958333 0.833333 0
1 0.916667 0
0.958333 0.916666 0
1 0.875 0
0.958333 0.875 0
0.0416666 0.125 0
0.0416666 0.083333 0
0.0833332 0.124999 0
0.0833333 0.0833327 0
0.0416666 0.166666 0
0.0416666 0.125 0
0.0833332 0.166666 0
0.0833332 0.124999 0
0 0.166667 0
0 0.125 0
0.0416666 0.166666 0
0.0416666 0.125 0
0 0.125 0
0 0.0833333 0
0.0416666 0.125 0
0.0416666 0.083333 0
[...]
POINT_DATA 2304
SCALARS solution_0 double 1
LOOKUP_TABLE default
-0.0167271 -0.00821805 -0.0284931 -0.0152784 -0.0260229 -0.0167271 -0.0422868 -0.0284931 -0.0129381 -0.00783948 -0.0260229 -0.0167271 -0.00783948 -0.00352103 -0.0167271 -0.00821805 -0.0160768 -0.0190104 0.0144976 0.0113577 -0.0138 -0.0160768 0.0167494 0.0144976 -0.0443296 -0.0462948 -0.0138 -0.0160768 -0.0462948 -0.048731 -0.0160768 -0.0190104 0.0387004 0.0334181 0.0713065 0.0656108 0.0428217 0.0387004 0.0753301 0.0713065 0.0113577 0.0074128 0.0428217 0.0387004 0.0074128 0.00267351 0.0387004 0.0334181 -0.0190104 -0.0225573 0.0113577 0.0074128 -0.048731 -0.0516855 -0.0190104 -0.0225573 -0.0516855 -0.0551044 -0.0225573 -0.0266598 -0.0225573 -0.0266598 0.0074128 0.00267351 -0.0787632 -0.110358 -0.0810644 -0.112308 -0.0810644 -0.112308 -0.0839338 -0.115081 -0.0516855 -0.0810644 -0.0551044 -0.0839338 -0.048731 -0.0787632 -0.0516855 -0.0810644 -0.0769875 -0.0545422 -0.0613656 -0.0422868 -0.100916 -0.0769875 -0.0824519 -0.0613656 -0.11276 -0.087716 -0.100916 -0.0769875 -0.087716 -0.0634512 -0.0769875 -0.0545422 0.115123 0.0849712 0.11811 0.0924822 0.14286 0.115123 0.141337 0.11811 0.155701 0.123323 0.14286 0.115123 0.123323 0.089325 0.115123 0.0849712 -0.143961 -0.146297 -0.110358 -0.112308 -0.177189 -0.180642 -0.143961 -0.146297 -0.180642 -0.184338 -0.146297 -0.149539 -0.146297 -0.149539 -0.112308 -0.115081 -0.0462948 -0.0769375 -0.048731 -0.0787632 -0.0443296 -0.0753318 -0.0462948 -0.0769375 -0.0753318 -0.1071 -0.0769375 -0.108823 -0.0769375 -0.108823 -0.0787632 -0.110358 -0.114262 -0.0745947 -0.0853207 -0.0519444 -0.139521 -0.0963431 -0.114262 -0.0745947 -0.0963431 -0.0580542 -0.0745947 -0.0416227 -0.0745947 -0.0416227 -0.0519444 -0.0258656 -0.203573 -0.214579 -0.20813 -0.21914 -0.20813 -0.21914 -0.211214 -0.219933 -0.180642 -0.20813 -0.184338 -0.211214 -0.177189 -0.203573 -0.180642 -0.20813 -0.0346307 -0.0260229 -0.0545422 -0.0422868 -0.0411792 -0.0346307 -0.0634512 -0.0545422 -0.0217385 -0.0178563 -0.0411792 -0.0346307 -0.0178563 -0.0129381 -0.0346307 -0.0260229 0.01627 0.0512255 0.0506477 0.0845327 -0.00662205 0.01627 0.0265846 0.0506477 -0.0361321 -0.0244048 -0.00662205 0.01627 -0.0244048 -0.000297245 0.01627 0.0512255 -0.0577701 -0.0479301 -0.0801025 -0.0660318 -0.0334885 -0.0276921 -0.0577701 -0.0479301 -0.0276921 -0.0204698 -0.0479301 -0.036272 -0.0479301 -0.036272 -0.0660318 -0.0500677 -0.100067 -0.133769 -0.111081 -0.143341 -0.0698152 -0.100067 -0.0797009 -0.111081 -0.063545 -0.0925245 -0.0698152 -0.100067 -0.0925245 -0.125213 -0.100067 -0.133769 0.0167494 0.0144976 0.0475367 0.0458059 0.0144976 0.0113577 0.0458059 0.0428217 0.0458059 0.0428217 0.077708 0.0753301 0.0475367 0.0458059 0.0782873 0.077708 0.109451 0.108258 0.139634 0.140297 0.108135 0.109451 0.135671 0.139634 0.0782873 0.077708 0.108135 0.109451 0.077708 0.0753301 0.109451 0.108258 0.428667 0.454307 1 1 0.211668 0.234197 0.428667 0.454307 0.234197 0.252835 0.454307 0.476583 0.454307 0.476583 1 1 0.089325 0.0552302 0.0849712 0.0542135 0.0552302 0.0234121 0.0542135 0.0254356 0.0542135 0.0254356 0.065945 0.04056 0.0849712 0.0542135 0.0924822 0.065945 -0.020957 -0.00570851 -0.0182456 -0.0101866 0 0 -0.020957 -0.00570851 0 0 -0.00570851 -0.000171677 -0.00570851 -0.000171677 -0.0101866 0.00510155 -0.173203 -0.177189 -0.141795 -0.143961 -0.141795 -0.143961 -0.108823 -0.110358 -0.138832 -0.141795 -0.1071 -0.108823 -0.167574 -0.173203 -0.138832 -0.141795 -0.0236689 -0.0333666 -0.036272 -0.0500677 -0.0123915 -0.0236689 -0.0204698 -0.036272 -0.00495585 -0.0116226 -0.0123915 -0.0236689 -0.0116226 -0.0173989 -0.0236689 -0.0333666 0.166967 0.14286 0.161065 0.141337 0.186677 0.166967 0.176572 0.161065 0.211668 0.185377 0.186677 0.166967 0.185377 0.155701 0.166967 0.14286 -0.133884 -0.104283 -0.12585 -0.0993105 -0.159133 -0.133884 -0.146991 -0.12585 -0.167574 -0.138832 -0.159133 -0.133884 -0.138832 -0.1071 -0.133884 -0.104283 -0.163463 -0.184883 -0.147601 -0.180485 -0.147601 -0.180485 -0.119601 -0.157633 -0.10411 -0.147601 -0.0777606 -0.119601 -0.12589 -0.163463 -0.10411 -0.147601 0.0265846 0.0506477 0.0525259 0.0782578 0.0506477 0.0845327 0.0782578 0.111663 0.0782578 0.111663 0.103019 0.135298 0.0525259 0.0782578 0.0751751 0.103019 0.0429612 0.0666283 0.0382264 0.0584193 0.0171521 0.0429612 0.0155395 0.0382264 0.0180755 0.046252 0.0171521 0.0429612 0.046252 0.0728894 0.0429612 0.0666283 -0.167574 -0.159133 -0.18808 -0.175548 -0.159133 -0.146991 -0.175548 -0.159164 -0.175548 -0.159164 -0.178914 -0.15955 -0.18808 -0.175548 -0.194612 -0.178914 0.0581063 0.0904852 0.0656108 0.0988478 0.0486436 0.0794372 0.0581063 0.0904852 0.0794372 0.110803 0.0904852 0.123223 0.0904852 0.123223 0.0988478 0.132152 -0.0875229 -0.0728597 -0.0821792 -0.0584657 -0.0990751 -0.0875229 -0.105427 -0.0821792 -0.065275 -0.0647401 -0.0990751 -0.0875229 -0.0647401 -0.0612587 -0.0875229 -0.0728597 0.0650585 0.17665 -0.0120198 0.054158 -0.0120198 0.054158 -0.0294389 -0.000297245 0 -0.0120198 0 -0.0294389 0 0.0650585 0 -0.0120198 -0.00200632 -0.00075125 -0.00783948 -0.00352103 -0.00356088 -0.00200632 -0.0129381 -0.00783948 0 0 -0.00356088 -0.00200632 0 0 -0.00200632 -0.00075125 -0.0101866 0.00510155 0.00264876 0.0189903 0.00264876 0.0189903 0.0254356 0.04056 -0.00319699 0.00264876 0.0234121 0.0254356 -0.0182456 -0.0101866 -0.00319699 0.00264876 -0.0490574 0 -0.0442008 0 -0.0923757 -0.0490574 -0.0848894 -0.0442008 -0.0949432 -0.0504873 -0.0923757 -0.0490574 -0.0504873 0 -0.0490574 0 0.491106 1 0.522251 1 0.240549 0.491106 0.269438 0.522251 0.17665 0.426795 0.240549 0.491106 0.426795 1 0.491106 1 -0.00705083 -0.0238831 -0.00623897 -0.0216456 -0.00623897 -0.0216456 -0.00474559 -0.0173989 0 -0.00623897 0 -0.00474559 0 -0.00705083 0 -0.00623897 -0.160522 -0.167279 -0.125213 -0.133769 -0.192093 -0.192544 -0.160522 -0.167279 -0.192544 -0.184883 -0.167279 -0.170591 -0.167279 -0.170591 -0.133769 -0.143341 -0.17961 -0.139521 -0.154846 -0.114262 -0.154846 -0.114262 -0.122856 -0.0853207 -0.186702 -0.154846 -0.157633 -0.122856 -0.205688 -0.17961 -0.186702 -0.154846 -0.146991 -0.12585 -0.130892 -0.114074 -0.12585 -0.0993105 -0.114074 -0.0913404 -0.114074 -0.0913404 -0.0986534 -0.0801025 -0.130892 -0.114074 -0.111348 -0.0986534 -0.0612587 -0.0560296 -0.0728597 -0.0569968 -0.0560296 -0.0500228 -0.0569968 -0.0409269 -0.0569968 -0.0409269 -0.0358403 -0.0146123 -0.0728597 -0.0569968 -0.0584657 -0.0358403 -0.139521 -0.158851 -0.0963431 -0.114708 -0.158851 -0.171379 -0.114708 -0.12809 -0.114708 -0.12809 -0.0730583 -0.0848894 -0.0963431 -0.114708 -0.0580542 -0.0730583 0 0 -0.00075125 -0.000652651 0 0 -0.000652651 0 -0.000652651 0 -0.000656736 0 -0.00075125 -0.000652651 -0.00352103 -0.000656736 -0.0236227 -0.023658 -0.0560296 -0.0500228 -0.0232661 -0.0236227 -0.0612587 -0.0560296 0 0 -0.0232661 -0.0236227 0 0 -0.0236227 -0.023658 -0.0313247 -0.0519444 -0.0128069 -0.0258656 -0.0153135 -0.0313247 -0.00383167 -0.0128069 -0.0315129 -0.0563594 -0.0153135 -0.0313247 -0.0563594 -0.0853207 -0.0313247 -0.0519444 -0.0778025 -0.12589 -0.0587248 -0.10411 -0.0587248 -0.10411 -0.040515 -0.0777606 -0.0233448 -0.0587248 -0.0149759 -0.040515 -0.0336274 -0.0778025 -0.0233448 -0.0587248 0.283241 0.289752 0.166873 0.183946 0.166873 0.183946 0.111663 0.135298 0.144887 0.166873 0.0845327 0.111663 0.269438 0.283241 0.144887 0.166873 -0.116363 -0.0920644 -0.11276 -0.087716 -0.111348 -0.0894836 -0.116363 -0.0920644 -0.0894836 -0.0667187 -0.0920644 -0.0677127 -0.0920644 -0.0677127 -0.087716 -0.0634512 0.029494 0.0525259 0.0488892 0.0751751 0.0072408 0.029494 0.0235525 0.0488892 -0.0146123 0.00574722 0.0072408 0.029494 0.00574722 0.0265846 0.029494 0.0525259 -0.0002771 0.00174253 0 0 0 -0.0002771 0 0 0 0.000722478 0 -0.0002771 0.000722478 0.00154222 -0.0002771 0.00174253 0 -0.020957 0 0.103688 -0.020957 -0.0182456 0.103688 0.144784 0.103688 0.144784 1 1 0 0.103688 1 1 -0.043628 -0.0361321 -0.0245805 -0.00662205 -0.0245805 -0.00662205 0.00574722 0.0265846 -0.0409269 -0.0245805 -0.0146123 0.00574722 -0.0500228 -0.043628 -0.0409269 -0.0245805 -0.119601 -0.157633 -0.0869085 -0.122856 -0.0869085 -0.122856 -0.0563594 -0.0853207 -0.0525326 -0.0869085 -0.0315129 -0.0563594 -0.0777606 -0.119601 -0.0525326 -0.0869085 -0.163172 -0.1479 -0.170591 -0.143341 -0.163463 -0.163172 -0.184883 -0.170591 -0.12589 -0.13769 -0.163463 -0.163172 -0.13769 -0.137039 -0.163172 -0.1479 -0.0238828 -0.0217385 -0.0446369 -0.0411792 -0.0446369 -0.0411792 -0.0677127 -0.0634512 -0.0444389 -0.0446369 -0.0667187 -0.0677127 -0.0238831 -0.0238828 -0.0444389 -0.0446369 -0.0804073 -0.0660318 -0.060591 -0.0500677 -0.0894836 -0.0804073 -0.0667187 -0.060591 -0.111348 -0.0986534 -0.0894836 -0.0804073 -0.0986534 -0.0801025 -0.0804073 -0.0660318 0.132549 0.141337 0.114033 0.11811 0.114033 0.11811 0.0931596 0.0924822 0.103348 0.114033 0.0870418 0.0931596 0.117344 0.132549 0.103348 0.114033 -0.0216456 -0.0405422 -0.0173989 -0.0333666 -0.0238831 -0.0444389 -0.0216456 -0.0405422 -0.0444389 -0.0667187 -0.0405422 -0.060591 -0.0405422 -0.060591 -0.0333666 -0.0500677 0.0584193 0.0750731 0.0490416 0.0616727 0.0750731 0.0870418 0.0616727 0.0694112 0.0616727 0.0694112 0.0475906 0.0512997 0.0490416 0.0616727 0.0391183 0.0475906 -0.0925245 -0.0875532 -0.125213 -0.119149 -0.063545 -0.0589701 -0.0925245 -0.0875532 -0.0589701 -0.0551044 -0.0875532 -0.0839338 -0.0875532 -0.0839338 -0.119149 -0.115081 -0.00708891 -0.00639466 -0.0238828 -0.0217385 -0.00705083 -0.00708891 -0.0238831 -0.0238828 0 0 -0.00705083 -0.00708891 0 0 -0.00708891 -0.00639466 0.0711206 0.065945 0.0492163 0.04056 0.0694112 0.0711206 0.0512997 0.0492163 0.0870418 0.0931596 0.0694112 0.0711206 0.0931596 0.0924822 0.0711206 0.065945 -0.023658 -0.0240026 -0.0500228 -0.043628 0 0 -0.023658 -0.0240026 0 0 -0.0240026 -0.0255308 -0.0240026 -0.0255308 -0.043628 -0.0361321 0.296026 1 0.426795 1 0.0650585 0.296026 0.17665 0.426795 0 0 0.0650585 0.296026 0 1 0.296026 1 -0.0255308 -0.028593 -0.0361321 -0.0244048 0 0 -0.0255308 -0.028593 0 0 -0.028593 -0.0294389 -0.028593 -0.0294389 -0.0244048 -0.000297245 0.054158 0.113982 -0.000297245 0.0512255 0.17665 0.240549 0.054158 0.113982 0.240549 0.269438 0.113982 0.144887 0.113982 0.144887 0.0512255 0.0845327 -0.0377169 -0.0334885 -0.0652502 -0.0577701 -0.0652502 -0.0577701 -0.0913404 -0.0801025 -0.0702975 -0.0652502 -0.0993105 -0.0913404 -0.0405825 -0.0377169 -0.0702975 -0.0652502 -0.00639466 -0.00512964 -0.0217385 -0.0178563 0 0 -0.00639466 -0.00512964 0 0 -0.00512964 -0.00356088 -0.00512964 -0.00356088 -0.0178563 -0.0129381 -0.130892 -0.111348 -0.139155 -0.116363 -0.139155 -0.116363 -0.137151 -0.11276 -0.159164 -0.139155 -0.15955 -0.137151 -0.146991 -0.130892 -0.159164 -0.139155 -0.196259 -0.205356 -0.158851 -0.171379 -0.17961 -0.196259 -0.139521 -0.158851 -0.205688 -0.216034 -0.17961 -0.196259 -0.216034 -0.219933 -0.196259 -0.205356 0.0371395 0.0235525 0.0655621 0.0488892 0.0655621 0.0488892 0.0947516 0.0751751 0.0794372 0.0655621 0.110803 0.0947516 0.0486436 0.0371395 0.0794372 0.0655621 0.155701 0.368649 0.123323 0.335372 0.368649 1 0.335372 1 0.335372 1 0.300752 1 0.123323 0.335372 0.089325 0.300752 0.0552302 0.265287 0.0234121 0.228662 0.089325 0.300752 0.0552302 0.265287 0.300752 1 0.265287 1 0.265287 1 0.228662 1 0.0133404 0.0208663 0.0167399 0.0285045 0.00820833 0.0108708 0.0133404 0.0208663 0.0108708 0.0122779 0.0208663 0.0269785 0.0208663 0.0269785 0.0285045 0.0391183 0 0 -0.0201124 -0.0221703 0 0 -0.0221703 -0.0232661 -0.0221703 -0.0232661 -0.0647401 -0.0612587 -0.0201124 -0.0221703 -0.065275 -0.0647401 0.15911 0.176572 0.147767 0.161065 0.147767 0.161065 0.132549 0.141337 0.12824 0.147767 0.117344 0.132549 0.135671 0.15911 0.12824 0.147767 -0.21914 -0.207939 -0.219933 -0.205356 -0.214579 -0.204914 -0.21914 -0.207939 -0.204914 -0.176648 -0.207939 -0.177151 -0.207939 -0.177151 -0.205356 -0.171379 0 0.00462435 0 0.0052692 0 0.00333942 0 0.00462435 0.00333942 0.00820833 0.00462435 0.0133404 0.00462435 0.0133404 0.0052692 0.0167399 -0.093803 -0.0797009 -0.122758 -0.111081 -0.122758 -0.111081 -0.1479 -0.143341 -0.125085 -0.122758 -0.137039 -0.1479 -0.105427 -0.093803 -0.125085 -0.122758 0 0 -0.000585254 -0.0027727 0 0 -0.0027727 -0.00474559 -0.0027727 -0.00474559 -0.0116226 -0.0173989 -0.000585254 -0.0027727 -0.00495585 -0.0116226 0.399955 1 0.368649 1 0.185377 0.399955 0.155701 0.368649 0.211668 0.428667 0.185377 0.399955 0.428667 1 0.399955 1 -0.105427 -0.0821792 -0.093803 -0.0653605 -0.0821792 -0.0584657 -0.0653605 -0.0392278 -0.0653605 -0.0392278 -0.0514323 -0.0257216 -0.093803 -0.0653605 -0.0797009 -0.0514323 -0.0580542 -0.0268748 -0.0416227 -0.0169078 -0.0268748 0 -0.0169078 0 -0.0169078 0 -0.00805215 0 -0.0416227 -0.0169078 -0.0258656 -0.00805215 -0.00383167 -0.0128069 0.00216022 -0.00148947 -0.0128069 -0.0258656 -0.00148947 -0.00805215 -0.00148947 -0.00805215 0 0 0.00216022 -0.00148947 0 0 -0.085768 -0.0753974 -0.0436687 -0.0370241 -0.0753974 -0.0627613 -0.0370241 -0.0294968 -0.0370241 -0.0294968 0 0 -0.0436687 -0.0370241 0 0 -0.0939573 -0.103603 -0.13769 -0.137039 -0.0778025 -0.0939573 -0.12589 -0.13769 -0.0336274 -0.0446727 -0.0778025 -0.0939573 -0.0446727 -0.0547427 -0.0939573 -0.103603 0.135671 0.139634 0.15911 0.166365 0.139634 0.140297 0.166365 0.169538 0.166365 0.169538 0.187477 0.193648 0.15911 0.166365 0.176572 0.187477 0.0190205 0.00978377 0.0486436 0.0371395 -0.00924833 -0.0165776 0.0190205 0.00978377 -0.0165776 -0.0257216 0.00978377 -0.0011139 0.00978377 -0.0011139 0.0371395 0.0235525 0.190286 0.228662 1 1 0.144784 0.190286 1 1 -0.0182456 -0.00319699 0.144784 0.190286 -0.00319699 0.0234121 0.190286 0.228662 -0.124919 -0.100916 -0.104245 -0.0824519 -0.147574 -0.124919 -0.125224 -0.104245 -0.15955 -0.137151 -0.147574 -0.124919 -0.137151 -0.11276 -0.124919 -0.100916 -0.0584657 -0.0358403 -0.0392278 -0.0153306 -0.0358403 -0.0146123 -0.0153306 0.0072408 -0.0153306 0.0072408 -0.0011139 0.0235525 -0.0392278 -0.0153306 -0.0257216 -0.0011139 -0.0201124 -0.065275 -0.0171835 -0.0619607 -0.0171835 -0.0619607 -0.0136541 -0.0547427 0 -0.0171835 0 -0.0136541 0 -0.0201124 0 -0.0171835 -0.0268748 -0.0364536 0 0 -0.0580542 -0.0730583 -0.0268748 -0.0364536 -0.0730583 -0.0848894 -0.0364536 -0.0442008 -0.0364536 -0.0442008 0 0 -0.0425842 -0.0405825 -0.0733904 -0.0702975 -0.0733904 -0.0702975 -0.104283 -0.0993105 -0.0753318 -0.0733904 -0.1071 -0.104283 -0.0443296 -0.0425842 -0.0753318 -0.0733904 -0.0312697 -0.00287592 -0.0266598 0.00267351 -0.0589701 -0.0312697 -0.0551044 -0.0266598 -0.063545 -0.0364319 -0.0589701 -0.0312697 -0.0364319 -0.00924833 -0.0312697 -0.00287592 0.0029997 0.00216022 0 0 0.00174253 0.0029997 0 0 0.00154222 0.00069 0.00174253 0.0029997 0.00069 -0.00383167 0.0029997 0.00216022 -0.137544 -0.0949432 -0.135742 -0.0923757 -0.135742 -0.0923757 -0.12809 -0.0848894 -0.177151 -0.135742 -0.171379 -0.12809 -0.176648 -0.137544 -0.177151 -0.135742 -0.000585254 -0.00495585 0.0015368 0.00189122 0.0015368 0.00189122 0.00333942 0.00820833 0 0.0015368 0 0.00333942 0 -0.000585254 0 0.0015368 -0.184335 -0.159362 -0.1969 -0.170496 -0.1969 -0.170496 -0.204914 -0.176648 -0.206456 -0.1969 -0.214579 -0.204914 -0.194612 -0.184335 -0.206456 -0.1969 -0.18845 -0.154233 -0.184338 -0.149539 -0.192093 -0.160522 -0.18845 -0.154233 -0.160522 -0.125213 -0.154233 -0.119149 -0.154233 -0.119149 -0.149539 -0.115081 -0.0443296 -0.0138 -0.0425842 -0.0121591 -0.0138 0.0167494 -0.0121591 0.0179737 -0.0121591 0.0179737 -0.0109944 0.0180755 -0.0425842 -0.0121591 -0.0405825 -0.0109944 -0.00867797 -0.02544 -0.00399149 -0.0138407 -0.0149759 -0.040515 -0.00867797 -0.02544 -0.040515 -0.0777606 -0.02544 -0.0525326 -0.02544 -0.0525326 -0.0138407 -0.0315129 -0.212355 -0.211214 -0.216034 -0.219933 -0.209817 -0.212355 -0.205688 -0.216034 -0.192093 -0.18845 -0.209817 -0.212355 -0.18845 -0.184338 -0.212355 -0.211214 0.0475367 0.0782873 0.0477669 0.0767698 0.0477669 0.0767698 0.046252 0.0728894 0.0179737 0.0477669 0.0180755 0.046252 0.0167494 0.0475367 0.0179737 0.0477669 -0.0364319 -0.0426134 -0.00924833 -0.0165776 -0.063545 -0.0698152 -0.0364319 -0.0426134 -0.0698152 -0.0797009 -0.0426134 -0.0514323 -0.0426134 -0.0514323 -0.0165776 -0.0257216 -0.173203 -0.197156 -0.177189 -0.203573 -0.167574 -0.18808 -0.173203 -0.197156 -0.18808 -0.194612 -0.197156 -0.206456 -0.197156 -0.206456 -0.203573 -0.214579 0.0382264 0.0584193 0.0327023 0.0490416 0.0327023 0.0490416 0.0269785 0.0391183 0.0137629 0.0327023 0.0122779 0.0269785 0.0155395 0.0382264 0.0137629 0.0327023 0.108135 0.135671 0.104049 0.12824 0.104049 0.12824 0.0970032 0.117344 0.0767698 0.104049 0.0728894 0.0970032 0.0782873 0.108135 0.0767698 0.104049 -0.0619607 -0.105118 -0.0547427 -0.103603 -0.065275 -0.0990751 -0.0619607 -0.105118 -0.0990751 -0.105427 -0.105118 -0.125085 -0.105118 -0.125085 -0.103603 -0.137039 -0.00924833 0.0190205 -0.00287592 0.0268832 0.0190205 0.0486436 0.0268832 0.0581063 0.0268832 0.0581063 0.0334181 0.0656108 -0.00287592 0.0268832 0.00267351 0.0334181 -0.209817 -0.205688 -0.200458 -0.186702 -0.200458 -0.186702 -0.180485 -0.157633 -0.192544 -0.200458 -0.184883 -0.180485 -0.192093 -0.209817 -0.192544 -0.200458 0.000347455 -0.000506844 0.000722478 0.00154222 0 0.000347455 0 0.000722478 0 -0.000395348 0 0.000347455 -0.000395348 -0.00399149 0.000347455 -0.000506844 0.0753301 0.0713065 0.108258 0.104724 0.0713065 0.0656108 0.104724 0.0988478 0.104724 0.0988478 0.1378 0.132152 0.108258 0.104724 0.140297 0.1378 0.0970032 0.117344 0.0871442 0.103348 0.0871442 0.103348 0.0750731 0.0870418 0.0666283 0.0871442 0.0584193 0.0750731 0.0728894 0.0970032 0.0666283 0.0871442 0.234197 0.201609 0.252835 0.211686 0.211668 0.186677 0.234197 0.201609 0.186677 0.176572 0.201609 0.187477 0.201609 0.187477 0.211686 0.193648 -0.00672668 0.0137629 -0.00390172 0.0122779 -0.0276921 -0.00672668 -0.0204698 -0.00390172 -0.0334885 -0.00868373 -0.0276921 -0.00672668 -0.00868373 0.0155395 -0.00672668 0.0137629 -0.0405825 -0.0109944 -0.0377169 -0.00997726 -0.0109944 0.0180755 -0.00997726 0.0171521 -0.00997726 0.0171521 -0.00868373 0.0155395 -0.0377169 -0.00997726 -0.0334885 -0.00868373 -0.0051746 -0.0153135 0.00069 -0.00383167 -0.000506844 -0.0051746 0.00154222 0.00069 -0.00399149 -0.0138407 -0.000506844 -0.0051746 -0.0138407 -0.0315129 -0.0051746 -0.0153135 -0.178914 -0.15955 -0.167681 -0.147574 -0.167681 -0.147574 -0.143977 -0.125224 -0.184335 -0.167681 -0.159362 -0.143977 -0.194612 -0.178914 -0.184335 -0.167681 -0.085768 -0.0436687 -0.0925855 -0.0484797 -0.0436687 0 -0.0484797 0 -0.0484797 0 -0.0504873 0 -0.0925855 -0.0484797 -0.0949432 -0.0504873 0.168696 0.163846 0.195089 0.191865 0.169538 0.168696 0.193648 0.195089 0.140297 0.1378 0.169538 0.168696 0.1378 0.132152 0.168696 0.163846 -0.00452912 -0.0233448 -0.00268763 -0.0149759 0 -0.00452912 0 -0.00268763 0 -0.00700903 0 -0.00452912 -0.00700903 -0.0336274 -0.00452912 -0.0233448 -0.0101125 -0.0136541 -0.0446727 -0.0547427 -0.00700903 -0.0101125 -0.0336274 -0.0446727 0 0 -0.00700903 -0.0101125 0 0 -0.0101125 -0.0136541 -0.024719 -0.0152784 -0.00927832 -0.00484059 -0.00927832 -0.00484059 0 0 -0.0150835 -0.00927832 0 0 -0.036261 -0.024719 -0.0150835 -0.00927832 -0.0627613 -0.049279 -0.0294968 -0.0219633 -0.049279 -0.036261 -0.0219633 -0.0150835 -0.0219633 -0.0150835 0 0 -0.0294968 -0.0219633 0 0 0.154906 0.184077 0.163846 0.191865 0.123223 0.154906 0.132152 0.163846 0.110803 0.141756 0.123223 0.154906 0.141756 0.171875 0.154906 0.184077 0.290729 0.531734 0.286366 0.522848 0.531734 1 0.522848 1 0.522848 1 0.510769 1 0.286366 0.522848 0.278733 0.510769 -0.125224 -0.104245 -0.0958259 -0.0779397 -0.104245 -0.0824519 -0.0779397 -0.0598733 -0.0779397 -0.0598733 -0.049279 -0.036261 -0.0958259 -0.0779397 -0.0627613 -0.049279 -0.143977 -0.125224 -0.111978 -0.0958259 -0.111978 -0.0958259 -0.0753974 -0.0627613 -0.124992 -0.111978 -0.085768 -0.0753974 -0.159362 -0.143977 -0.124992 -0.111978 0.00189122 -0.000542457 0.00820833 0.0108708 -0.00495585 -0.0123915 0.00189122 -0.000542457 -0.0123915 -0.0204698 -0.000542457 -0.00390172 -0.000542457 -0.00390172 0.0108708 0.0122779 -0.170496 -0.133778 -0