# vtk DataFile Version 3.0
#This file was generated by the deal.II library on 2020/12/27 at 13:45:50
ASCII
DATASET UNSTRUCTURED_GRID

POINTS 29376 double
0.125 0.124999 0
0.125 0.0833324 0
0.166666 0.124998 0
0.166667 0.0833322 0
0.125 0.166665 0
0.125 0.124999 0
0.166666 0.166664 0
0.166666 0.124998 0
0.0833332 0.166666 0
0.0833332 0.124999 0
0.125 0.166665 0
0.125 0.124999 0
0.0833332 0.124999 0
0.0833333 0.0833327 0
0.125 0.124999 0
0.125 0.0833324 0
0.458332 0.541659 0
0.499999 0.541659 0
0.458332 0.583326 0
0.499999 0.583326 0
0.416666 0.541659 0
0.458332 0.541659 0
0.416666 0.583326 0
0.458332 0.583326 0
0.416666 0.499992 0
0.458332 0.499992 0
0.416666 0.541659 0
0.458332 0.541659 0
0.458332 0.499992 0
0.499999 0.499992 0
0.458332 0.541659 0
0.499999 0.541659 0
0.541666 0.624993 0
0.583332 0.624993 0
0.541666 0.66666 0
0.583332 0.66666 0
0.499999 0.624993 0
0.541666 0.624993 0
0.499999 0.66666 0
0.541666 0.66666 0
0.499999 0.583326 0
0.541666 0.583326 0
0.499999 0.624993 0
0.541666 0.624993 0
0.541666 0.583326 0
0.583332 0.583326 0
0.541666 0.624993 0
0.583332 0.624993 0
0.499999 0.541659 0
0.541666 0.541659 0
0.499999 0.583326 0
0.541666 0.583326 0
0.499999 0.499992 0
0.541666 0.499992 0
0.499999 0.541659 0
0.541666 0.541659 0
0.541666 0.499992 0
0.583332 0.499992 0
0.541666 0.541659 0
0.583332 0.541659 0
0.541666 0.541659 0
0.583332 0.541659 0
0.541666 0.583326 0
0.583332 0.583326 0
0.499999 0.458326 0
0.499999 0.416659 0
0.541666 0.458326 0
0.541666 0.416659 0
0.541666 0.458326 0
0.541666 0.416659 0
0.583332 0.458326 0
0.583332 0.416659 0
0.541666 0.499992 0
0.541666 0.458326 0
0.583332 0.499992 0
0.583332 0.458326 0
0.499999 0.499992 0
0.499999 0.458326 0
0.541666 0.499992 0
0.541666 0.458326 0
0.208333 0.20833 0
0.166666 0.208331 0
0.208333 0.166664 0
0.166666 0.166664 0
0.208333 0.249996 0
0.166666 0.249997 0
0.208333 0.20833 0
0.166666 0.208331 0
0.499999 0.374993 0
0.541666 0.374993 0
0.499999 0.416659 0
0.541666 0.416659 0
0.499999 0.333326 0
0.541666 0.333326 0
0.499999 0.374993 0
0.541666 0.374993 0
0.541666 0.333326 0
0.583332 0.333327 0
0.541666 0.374993 0
0.583332 0.374993 0
0.541666 0.374993 0
0.583332 0.374993 0
0.541666 0.416659 0
0.583332 0.416659 0
0.458332 0.499992 0
0.458332 0.458326 0
0.499999 0.499992 0
0.499999 0.458326 0
0.416666 0.499992 0
0.416666 0.458326 0
0.458332 0.499992 0
0.458332 0.458326 0
0.416666 0.458326 0
0.416666 0.416659 0
0.458332 0.458326 0
0.458332 0.416659 0
0.458332 0.458326 0
0.458332 0.416659 0
0.499999 0.458326 0
0.499999 0.416659 0
0.125 0.208331 0
0.125 0.166665 0
0.166666 0.208331 0
0.166666 0.166664 0
0.125 0.249998 0
0.125 0.208331 0
0.166666 0.249997 0
0.166666 0.208331 0
0.0833331 0.249998 0
0.0833331 0.208332 0
0.125 0.249998 0
0.125 0.208331 0
0.0833331 0.208332 0
0.0833332 0.166666 0
0.125 0.208331 0
0.125 0.166665 0
0.416666 0.583326 0
0.458332 0.583326 0
0.416666 0.624993 0
0.458332 0.624993 0
0.458332 0.583326 0
0.499999 0.583326 0
0.458332 0.624993 0
0.499999 0.624993 0
0.458332 0.624993 0
0.499999 0.624993 0
0.458332 0.66666 0
0.499999 0.66666 0
0.416666 0.624993 0
0.458332 0.624993 0
0.416666 0.66666 0
0.458332 0.66666 0
0.458333 0.708327 0
0.499999 0.708327 0
0.458333 0.749994 0
0.499999 0.749994 0
0.416666 0.708327 0
0.458333 0.708327 0
0.416666 0.749994 0
0.458333 0.749994 0
0.416666 0.66666 0
0.458332 0.66666 0
0.416666 0.708327 0
0.458333 0.708327 0
0.458332 0.66666 0
0.499999 0.66666 0
0.458333 0.708327 0
0.499999 0.708327 0
0.458332 0.333326 0
0.499999 0.333326 0
0.458332 0.374993 0
0.499999 0.374993 0
0.458332 0.374993 0
0.499999 0.374993 0
0.458332 0.416659 0
0.499999 0.416659 0
0.416666 0.374993 0
0.458332 0.374993 0
0.416666 0.416659 0
0.458332 0.416659 0
0.416666 0.374993 0
0.416666 0.416659 0
0.374999 0.374993 0
0.374999 0.416659 0
0.624999 0.66666 0
0.624999 0.708328 0
0.583332 0.66666 0
0.583333 0.708327 0
0.666666 0.666661 0
0.666666 0.708328 0
0.624999 0.66666 0
0.624999 0.708328 0
0.666666 0.708328 0
0.666666 0.749995 0
0.624999 0.708328 0
0.624999 0.749995 0
0.624999 0.708328 0
0.624999 0.749995 0
0.583333 0.708327 0
0.583333 0.749995 0
0.0416666 0.125 0
0.0416666 0.083333 0
0.0833332 0.124999 0
0.0833333 0.0833327 0
0.0416666 0.166666 0
0.0416666 0.125 0
0.0833332 0.166666 0
0.0833332 0.124999 0
0 0.166667 0
0 0.125 0
0.0416666 0.166666 0
0.0416666 0.125 0
0 0.125 0
0 0.0833333 0
0.0416666 0.125 0
0.0416666 0.083333 0
0.541667 0.0416655 0
0.541667 0 0
0.583333 0.0416656 0
0.583333 0 0
0.541666 0.0833311 0
0.541667 0.0416655 0
0.583333 0.0833311 0
0.583333 0.0416656 0
0.5 0.0833311 0
0.5 0.0416655 0
0.541666 0.0833311 0
0.541667 0.0416655 0
0.5 0.0416655 0
0.5 0 0
0.541667 0.0416655 0
0.541667 0 0
0 0.0833333 0
0 0.0416667 0
0.0416666 0.083333 0
0.0416666 0.0416665 0
0 0.0416667 0
0 0 0
0.0416666 0.0416665 0
0.0416667 0 0
0.0416666 0.0416665 0
0.0416667 0 0
0.0833333 0.0416664 0
0.0833333 0 0
0.0416666 0.083333 0
0.0416666 0.0416665 0
0.0833333 0.0833327 0
0.0833333 0.0416664 0
0.0833331 0.291665 0
0.0833331 0.249998 0
0.125 0.291664 0
0.125 0.249998 0
0.125 0.291664 0
0.125 0.249998 0
0.166666 0.291663 0
0.166666 0.249997 0
0.125 0.33333 0
0.125 0.291664 0
0.166666 0.33333 0
0.166666 0.291663 0
0.0833331 0.333331 0
0.0833331 0.291665 0
0.125 0.33333 0
0.125 0.291664 0
0.666666 0.458327 0
0.624999 0.458326 0
0.666666 0.41666 0
0.624999 0.41666 0
0.666666 0.499993 0
0.624999 0.499993 0
0.666666 0.458327 0
0.624999 0.458326 0
0.624999 0.499993 0
0.583332 0.499992 0
0.624999 0.458326 0
0.583332 0.458326 0
0.624999 0.458326 0
0.583332 0.458326 0
0.624999 0.41666 0
0.583332 0.416659 0
0 0.208333 0
0 0.166667 0
0.0416666 0.208333 0
0.0416666 0.166666 0
0.0416666 0.208333 0
0.0416666 0.166666 0
0.0833331 0.208332 0
0.0833332 0.166666 0
0.708333 0.666661 0
0.749999 0.666662 0
0.708333 0.708328 0
0.749999 0.708329 0
0.708333 0.708328 0
0.749999 0.708329 0
0.708333 0.749996 0
0.749999 0.749996 0
0.666666 0.708328 0
0.708333 0.708328 0
0.666666 0.749995 0
0.708333 0.749996 0
0.666666 0.666661 0
0.708333 0.666661 0
0.666666 0.708328 0
0.708333 0.708328 0
0.416666 0.0833311 0
0.375 0.0833312 0
0.416667 0.0416656 0
0.375 0.0416656 0
0.375 0.0833312 0
0.333333 0.0833314 0
0.375 0.0416656 0
0.333333 0.0416657 0
0.375 0.0416656 0
0.333333 0.0416657 0
0.375 0 0
0.333333 0 0
0.416667 0.0416656 0
0.375 0.0416656 0
0.416667 0 0
0.375 0 0
0.458333 0.749994 0
0.499999 0.749994 0
0.458333 0.791662 0
0.499999 0.791662 0
0.666666 0.624994 0
0.708333 0.624994 0
0.666666 0.666661 0
0.708333 0.666661 0
0.666666 0.583327 0
0.708333 0.583327 0
0.666666 0.624994 0
0.708333 0.624994 0
0.708333 0.624994 0
0.749999 0.624995 0
0.708333 0.666661 0
0.749999 0.666662 0
0.625 0.0833312 0
0.583333 0.0833311 0
0.625 0.0416656 0
0.583333 0.0416656 0
0.625 0.0416656 0
0.583333 0.0416656 0
0.625 0 0
0.583333 0 0
0.374999 0.499993 0
0.333332 0.499993 0
0.374999 0.458326 0
0.333332 0.458326 0
0.416666 0.458326 0
0.374999 0.458326 0
0.416666 0.416659 0
0.374999 0.416659 0
0.416666 0.499992 0
0.374999 0.499993 0
0.416666 0.458326 0
0.374999 0.458326 0
0.624999 0.54166 0
0.624999 0.583326 0
0.583332 0.541659 0
0.583332 0.583326 0
0.624999 0.499993 0
0.624999 0.54166 0
0.583332 0.499992 0
0.583332 0.541659 0
0.666666 0.499993 0
0.666666 0.54166 0
0.624999 0.499993 0
0.624999 0.54166 0
0.666666 0.54166 0
0.666666 0.583327 0
0.624999 0.54166 0
0.624999 0.583326 0
0.5 0.124997 0
0.5 0.0833311 0
0.541666 0.124997 0
0.541666 0.0833311 0
0.541666 0.124997 0
0.541666 0.0833311 0
0.583333 0.124997 0
0.583333 0.0833311 0
0.666666 0.374994 0
0.666666 0.41666 0
0.624999 0.374993 0
0.624999 0.41666 0
0.624999 0.374993 0
0.624999 0.41666 0
0.583332 0.374993 0
0.583332 0.416659 0
0.416666 0.499992 0
0.416666 0.541659 0
0.374999 0.499993 0
0.374999 0.541659 0
0.416666 0.541659 0
0.416666 0.583326 0
0.374999 0.541659 0
0.374999 0.583326 0
0.374999 0.541659 0
0.374999 0.583326 0
0.333332 0.54166 0
0.333332 0.583326 0
0.374999 0.499993 0
0.374999 0.541659 0
0.333332 0.499993 0
0.333332 0.54166 0
0.416666 0.624993 0
0.416666 0.66666 0
0.374999 0.624993 0
0.374999 0.66666 0
0.374999 0.624993 0
0.374999 0.66666 0
0.333332 0.624994 0
0.333333 0.666661 0
0.374999 0.583326 0
0.374999 0.624993 0
0.333332 0.583326 0
0.333332 0.624994 0
0.416666 0.583326 0
0.416666 0.624993 0
0.374999 0.583326 0
0.374999 0.624993 0
0.666666 0.54166 0
0.708333 0.541661 0
0.666666 0.583327 0
0.708333 0.583327 0
0.666666 0.499993 0
0.708332 0.499994 0
0.666666 0.54166 0
0.708333 0.541661 0
0.416666 0.708327 0
0.416666 0.749994 0
0.374999 0.708328 0
0.374999 0.749995 0
0.416666 0.66666 0
0.416666 0.708327 0
0.374999 0.66666 0
0.374999 0.708328 0
0.666666 0.583327 0
0.666666 0.624994 0
0.624999 0.583326 0
0.624999 0.624993 0
0.666666 0.624994 0
0.666666 0.666661 0
0.624999 0.624993 0
0.624999 0.66666 0
0.624999 0.624993 0
0.624999 0.66666 0
0.583332 0.624993 0
0.583332 0.66666 0
0.624999 0.583326 0
0.624999 0.624993 0
0.583332 0.583326 0
0.583332 0.624993 0
0.499999 0.66666 0
0.541666 0.66666 0
0.499999 0.708327 0
0.541666 0.708327 0
0.541666 0.66666 0
0.583332 0.66666 0
0.541666 0.708327 0
0.583333 0.708327 0
0.541666 0.708327 0
0.583333 0.708327 0
0.541666 0.749994 0
0.583333 0.749995 0
0.499999 0.708327 0
0.541666 0.708327 0
0.499999 0.749994 0
0.541666 0.749994 0
0.416666 0.0833311 0
0.416667 0.0416656 0
0.458333 0.0833311 0
0.458333 0.0416655 0
0.416667 0.0416656 0
0.416667 0 0
0.458333 0.0416655 0
0.458333 0 0
0.458333 0.0416655 0
0.458333 0 0
0.5 0.0416655 0
0.5 0 0
0.458333 0.0833311 0
0.458333 0.0416655 0
0.5 0.0833311 0
0.5 0.0416655 0
0.499999 0.749994 0
0.541666 0.749994 0
0.499999 0.791662 0
0.541666 0.791662 0
0.541666 0.749994 0
0.583333 0.749995 0
0.541666 0.791662 0
0.583333 0.791662 0
0.208333 0.041666 0
0.166667 0.0416661 0
0.208333 0 0
0.166667 0 0
0.25 0.0416658 0
0.208333 0.041666 0
0.25 0 0
0.208333 0 0
0.333333 0.0833314 0
0.291666 0.0833315 0
0.333333 0.0416657 0
0.291667 0.0416658 0
0.291667 0.0416658 0
0.25 0.0416658 0
0.291667 0 0
0.25 0 0
0.333333 0.0416657 0
0.291667 0.0416658 0
[...]
POINT_DATA 29376
SCALARS solution_0 double 1
LOOKUP_TABLE default
-0.0312002 -0.0119392 -0.0555294 -0.0261549 -0.0527705 -0.0312002 -0.086712 -0.0555294 -0.0259409 -0.013683 -0.0527705 -0.0312002 -0.013683 -0.00415429 -0.0312002 -0.0119392 -0.0259156 -0.0298189 0.015085 0.0114072 -0.0225521 -0.0259156 0.0180236 0.015085 -0.0626112 -0.0661443 -0.0225521 -0.0259156 -0.0661443 -0.0701167 -0.0259156 -0.0298189 0.0492756 0.0430385 0.0937805 0.0872239 0.0539187 0.0492756 0.0982716 0.0937805 0.0114072 0.00673283 0.0539187 0.0492756 0.00673283 0.000882184 0.0492756 0.0430385 -0.0298189 -0.0344193 0.0114072 0.00673283 -0.0701167 -0.0745245 -0.0298189 -0.0344193 -0.0745245 -0.0793653 -0.0344193 -0.0398056 -0.0344193 -0.0398056 0.00673283 0.000882184 -0.109714 -0.149127 -0.113768 -0.152573 -0.113768 -0.152573 -0.117947 -0.156142 -0.0745245 -0.113768 -0.0793653 -0.117947 -0.0701167 -0.109714 -0.0745245 -0.113768 -0.159277 -0.1138 -0.126482 -0.086712 -0.178304 -0.131991 -0.159277 -0.1138 -0.18986 -0.192611 -0.149127 -0.152573 -0.23402 -0.236437 -0.18986 -0.192611 -0.236437 -0.239562 -0.192611 -0.195625 -0.192611 -0.195625 -0.152573 -0.156142 -0.0661443 -0.10594 -0.0701167 -0.109714 -0.0626112 -0.102592 -0.0661443 -0.10594 -0.102592 -0.143288 -0.10594 -0.145952 -0.10594 -0.145952 -0.109714 -0.149127 -0.0729341 -0.0527705 -0.1138 -0.086712 -0.0876457 -0.0729341 -0.131991 -0.1138 -0.0480919 -0.0380489 -0.0876457 -0.0729341 -0.0380489 -0.0259409 -0.0729341 -0.0527705 0.0180236 0.015085 0.0595314 0.0572305 0.015085 0.0114072 0.0572305 0.0539187 0.0572305 0.0539187 0.101029 0.0982716 0.0595314 0.0572305 0.102394 0.101029 0.146926 0.145027 0.194551 0.194207 0.146859 0.146926 0.19229 0.194551 0.102394 0.101029 0.146859 0.146926 0.101029 0.0982716 0.146926 0.145027 -0.232494 -0.23402 -0.187696 -0.18986 -0.187696 -0.18986 -0.145952 -0.149127 -0.185719 -0.187696 -0.143288 -0.145952 -0.185719 -0.143288 -0.184232 -0.141129 0.0783333 0.124226 0.0872239 0.134054 0.0669083 0.111012 0.0783333 0.124226 0.111012 0.157825 0.124226 0.172983 0.124226 0.172983 0.134054 0.183776 -0.00320278 -0.000390087 -0.013683 -0.00415429 -0.00714367 -0.00320278 -0.0259409 -0.013683 0 0 -0.00714367 -0.00320278 0 0 -0.00320278 -0.000390087 -0.0955825 0 -0.0837315 0 -0.181012 -0.0955825 -0.164538 -0.0837315 -0.187779 -0.100287 -0.181012 -0.0955825 -0.100287 0 -0.0955825 0 0 0 -0.000390087 -0.00115767 0 0 -0.00115767 0 -0.00115767 0 0.000868456 0 -0.000390087 -0.00115767 -0.00415429 0.000868456 -0.0534665 -0.0480919 -0.0945561 -0.0876457 -0.0945561 -0.0876457 -0.138989 -0.131991 -0.092595 -0.0945561 -0.133612 -0.138989 -0.0526668 -0.0534665 -0.092595 -0.0945561 -0.126148 -0.122181 -0.163573 -0.159781 -0.0898049 -0.0845119 -0.126148 -0.122181 -0.0845119 -0.0793653 -0.122181 -0.117947 -0.122181 -0.117947 -0.159781 -0.156142 0 0 -0.0110221 -0.00714367 -0.0110221 -0.00714367 -0.0380489 -0.0259409 0.0528399 0.0360531 0.0940841 0.0731834 0.0940841 0.0731834 0.137772 0.112397 0.111012 0.0940841 0.157825 0.137772 0.0669083 0.0528399 0.111012 0.0940841 -0.172621 -0.152769 -0.0873046 -0.0731065 -0.152769 -0.126797 -0.0731065 -0.0571068 -0.0731065 -0.0571068 0 0 -0.0873046 -0.0731065 0 0 0.194551 0.194207 0.242863 0.244812 0.0252707 0.0137774 0.0669083 0.0528399 -0.0144419 -0.02356 0.0252707 0.0137774 0.0137774 0.000742222 0.0528399 0.0360531 -0.138601 -0.164538 -0.065893 -0.0837315 -0.065893 -0.0837315 0 0 -0.0594755 -0.056808 -0.0998602 -0.0969852 -0.102592 -0.0998602 -0.143288 -0.141129 -0.0626112 -0.0594755 -0.102592 -0.0998602 -0.045951 -0.00620471 -0.0398056 0.000882184 -0.0845119 -0.045951 -0.0793653 -0.0398056 -0.0898049 -0.0526852 -0.0845119 -0.045951 -0.0526852 -0.0144419 -0.045951 -0.00620471 -0.271413 -0.187779 -0.267355 -0.181012 -0.267355 -0.181012 -0.25197 -0.164538 -0.204579 -0.163573 -0.199618 -0.159781 -0.199618 -0.159781 -0.195625 -0.156142 -0.0626112 -0.0225521 -0.0594755 -0.0195974 -0.0225521 0.0180236 -0.0195974 0.0204633 -0.0195974 0.0204633 -0.0171344 0.0223232 -0.0594755 -0.0195974 -0.056808 -0.0171344 0.0595314 0.102394 0.0611392 0.102635 0.0611392 0.102635 0.0619112 0.101554 0.0204633 0.0611392 0.0223232 0.0619112 0.0180236 0.0595314 0.0204633 0.0611392 -0.0526852 -0.0596732 -0.0144419 -0.02356 -0.0898049 -0.0949949 -0.0526852 -0.0596732 0.146859 0.19229 0.144702 0.18705 0.102394 0.146859 0.102635 0.144702 -0.0144419 0.0252707 -0.00620471 0.0350519 0.0252707 0.0669083 0.0350519 0.0783333 0.0350519 0.0783333 0.0430385 0.0872239 -0.00620471 0.0350519 0.000882184 0.0430385 0.0982716 0.0937805 0.145027 0.14086 0.0937805 0.0872239 0.14086 0.134054 0.14086 0.134054 0.190695 0.183776 0.145027 0.14086 0.194207 0.190695 -0.172621 -0.0873046 -0.184789 -0.0971693 -0.0873046 0 -0.0971693 0 -0.0971693 0 -0.100287 0 -0.184789 -0.0971693 -0.187779 -0.100287 0.194207 0.190695 0.244812 0.242368 0.190695 0.183776 0.242368 0.235592 -0.0142751 -0.0053886 0 0 -0.026288 -0.0142751 0 0 -0.126797 -0.0984626 -0.0571068 -0.0404665 -0.0404665 -0.026288 0 0 -0.0571068 -0.0404665 0 0 0.172983 0.223906 0.183776 0.235592 0.157825 0.206775 0.172983 0.223906 -0.211777 -0.168936 -0.159409 -0.121869 -0.159409 -0.121869 -0.0984626 -0.0709029 -0.194719 -0.159409 -0.126797 -0.0984626 -0.225652 -0.194719 -0.152769 -0.126797 -0.265212 -0.184789 -0.271413 -0.187779 -0.00415429 0.000868456 -0.0119392 -0.000117995 0.000868456 0 -0.000117995 0 -0.000117995 0 -0.0053886 0 0.157825 0.137772 0.206775 0.183629 0.137772 0.112397 0.183629 0.154024 -0.0863378 -0.0555294 -0.0460301 -0.0261549 -0.121869 -0.0863378 -0.0709029 -0.0460301 -0.168936 -0.126482 -0.121869 -0.0863378 -0.126482 -0.086712 -0.0863378 -0.0555294 -0.204348 -0.181579 -0.18864 -0.16625 -0.181579 -0.159277 -0.16625 -0.14288 -0.18864 -0.16625 -0.168936 -0.147709 -0.16625 -0.14288 -0.147709 -0.126482 -0.221052 -0.199933 -0.215207 -0.193049 -0.199933 -0.178304 -0.193049 -0.16879 -0.215207 -0.193049 -0.204348 -0.181579 -0.193049 -0.16879 -0.181579 -0.159277 -0.222635 -0.181879 -0.194262 -0.155243 -0.181879 -0.141874 -0.155243 -0.118216 -0.194262 -0.155243 -0.164351 -0.128263 -0.155243 -0.118216 -0.128263 -0.0950365 -0.271043 -0.230252 -0.248455 -0.207155 -0.230252 -0.187109 -0.207155 -0.165116 -0.248455 -0.207155 -0.222635 -0.181879 -0.207155 -0.165116 -0.181879 -0.141874 -0.187109 -0.145122 -0.165116 -0.125251 -0.145122 -0.10672 -0.125251 -0.0895296 -0.165116 -0.125251 -0.141874 -0.104901 -0.125251 -0.0895296 -0.104901 -0.0724173 -0.141874 -0.104901 -0.118216 -0.0847967 -0.104901 -0.0724173 -0.0847967 -0.0559888 -0.118216 -0.0847967 -0.0950365 -0.0656795 -0.0847967 -0.0559888 -0.0656795 -0.0408174 -0.283429 -0.308172 -0.284716 -0.309792 -0.308172 -0.33028 -0.309792 -0.332321 -0.284716 -0.309792 -0.286279 -0.311582 -0.309792 -0.332321 -0.311582 -0.334247 -0.286279 -0.311582 -0.28824 -0.313592 -0.311582 -0.334247 -0.313592 -0.336102 -0.28824 -0.313592 -0.29059 -0.31585 -0.313592 -0.336102 -0.31585 -0.337846 -0.236437 -0.260772 -0.238 -0.262441 -0.260772 -0.286279 -0.262441 -0.28824 -0.238 -0.262441 -0.239562 -0.264763 -0.262441 -0.28824 -0.264763 -0.29059 -0.23402 -0.258344 -0.235228 -0.259357 -0.258344 -0.283429 -0.259357 -0.284716 -0.235228 -0.259357 -0.236437 -0.260772 -0.259357 -0.284716 -0.260772 -0.286279 -0.0892386 -0.0853481 -0.108831 -0.104022 -0.0853481 -0.0802211 -0.104022 -0.097682 -0.108831 -0.104022 -0.12829 -0.122359 -0.104022 -0.097682 -0.122359 -0.114621 -0.0503064 -0.0478568 -0.0696929 -0.0665729 -0.0478568 -0.0447468 -0.0665729 -0.0625083 -0.0696929 -0.0665729 -0.0892386 -0.0853481 -0.0665729 -0.0625083 -0.0853481 -0.0802211 -0.0447468 -0.0408628 -0.0625083 -0.0573825 -0.0408628 -0.0361539 -0.0573825 -0.0511712 -0.0625083 -0.0573825 -0.0802211 -0.0737496 -0.0573825 -0.0511712 -0.0737496 -0.0659502 -0.0802211 -0.0737496 -0.097682 -0.0897331 -0.0737496 -0.0659502 -0.0897331 -0.080249 -0.097682 -0.0897331 -0.114621 -0.105046 -0.0897331 -0.080249 -0.105046 -0.0937828 -0.130979 -0.149707 -0.133915 -0.15307 -0.149707 -0.169438 -0.15307 -0.173554 -0.133915 -0.15307 -0.137724 -0.157597 -0.15307 -0.173554 -0.157597 -0.178936 -0.0949949 -0.112893 -0.0980438 -0.11568 -0.112893 -0.130979 -0.11568 -0.133915 -0.0980438 -0.11568 -0.101299 -0.119073 -0.11568 -0.133915 -0.119073 -0.137724 -0.0898049 -0.107977 -0.0923999 -0.110353 -0.107977 -0.126148 -0.110353 -0.128576 -0.0923999 -0.110353 -0.0949949 -0.112893 -0.110353 -0.128576 -0.112893 -0.130979 -0.126148 -0.144861 -0.128576 -0.147011 -0.144861 -0.163573 -0.147011 -0.16637 -0.128576 -0.147011 -0.130979 -0.149707 -0.147011 -0.16637 -0.149707 -0.169438 0 0 -0.00289819 -0.000783911 0 0 -0.000783911 0.000465746 -0.00289819 -0.000783911 -0.00795078 -0.00124755 -0.000783911 0.000465746 -0.00124755 0.00288515 -0.231534 -0.231881 -0.208311 -0.209005 -0.231881 -0.232494 -0.209005 -0.210095 -0.208311 -0.209005 -0.185719 -0.186707 -0.209005 -0.210095 -0.186707 -0.187696 -0.0469184 -0.0574608 -0.0569407 -0.0694069 -0.0574608 -0.0671991 -0.0694069 -0.0810658 -0.0569407 -0.0694069 -0.0659502 -0.080249 -0.0694069 -0.0810658 -0.080249 -0.0937828 -0.0243958 -0.0358209 -0.0306357 -0.0439373 -0.0358209 -0.0469184 -0.0439373 -0.0569407 -0.0306357 -0.0439373 -0.0361539 -0.0511712 -0.0439373 -0.0569407 -0.0511712 -0.0659502 -0.0108963 -0.0182273 -0.017657 -0.0270858 -0.0182273 -0.025297 -0.0270858 -0.0361984 -0.017657 -0.0270858 -0.0243958 -0.0358209 -0.0270858 -0.0361984 -0.0358209 -0.0469184 -0.025297 -0.0319272 -0.0361984 -0.0447888 -0.0319272 -0.0379663 -0.0447888 -0.0526432 -0.0361984 -0.0447888 -0.0469184 -0.0574608 -0.0447888 -0.0526432 -0.0574608 -0.0671991 -0.184232 -0.162681 -0.183413 -0.161534 -0.162681 -0.141129 -0.161534 -0.139904 -0.183413 -0.161534 -0.182354 -0.160434 -0.161534 -0.139904 -0.160434 -0.138899 -0.230035 -0.207128 -0.228445 -0.206124 -0.207128 -0.184232 -0.206124 -0.183413 -0.228445 -0.206124 -0.225824 -0.204365 -0.206124 -0.183413 -0.204365 -0.182354 -0.231534 -0.208311 -0.230961 -0.207709 -0.208311 -0.185719 -0.207709 -0.184975 -0.230961 -0.207709 -0.230035 -0.207128 -0.207709 -0.184975 -0.207128 -0.184232 -0.197849 -0.236031 -0.175179 -0.215639 -0.236031 -0.266994 -0.215639 -0.251548 -0.175179 -0.215639 -0.149523 -0.18992 -0.215639 -0.251548 -0.18992 -0.22811 0.118539 0.138307 0.136926 0.157713 0.138307 0.160194 0.157713 0.180154 0.136926 0.157713 0.154024 0.175711 0.157713 0.180154 0.175711 0.198613 0.0823836 0.100071 0.0979202 0.117138 0.100071 0.118539 0.117138 0.136926 0.0979202 0.117138 0.112397 0.13321 0.117138 0.136926 0.13321 0.154024 0.0620521 0.080749 0.0614453 0.0793709 0.080749 0.0991182 0.0793709 0.0968017 0.0614453 0.0793709 0.0602557 0.0772768 0.0793709 0.0968017 0.0772768 0.0936261 0.0240545 0.0431457 0.0245443 0.0431407 0.0431457 0.0620521 0.0431407 0.0614453 0.0245443 0.0431407 0.0247334 0.0427068 0.0431407 0.0614453 0.0427068 0.0602557 0.0223232 0.0421172 0.0233944 0.0427724 0.0421172 0.0619112 0.0427724 0.0622583 0.0233944 0.0427724 0.0240545 0.0431457 0.0427724 0.0622583 0.0431457 0.0620521 0.0619112 0.0817327 0.0622583 0.0814876 0.0817327 0.101554 0.0814876 0.100742 0.0622583 0.0814876 0.0620521 0.080749 0.0814876 0.100742 0.080749 0.0991182 -0.231534 -0.230961 -0.255425 -0.254347 -0.230961 -0.230035 -0.254347 -0.252661 -0.255425 -0.254347 -0.278819 -0.276804 -0.254347 -0.252661 -0.276804 -0.273868 -0.230035 -0.228445 -0.252661 -0.250012 -0.228445 -0.225824 -0.250012 -0.245999 -0.252661 -0.250012 -0.273868 -0.26964 -0.250012 -0.245999 -0.26964 -0.263732 -0.273868 -0.26964 -0.292155 -0.285855 -0.26964 -0.263732 -0.285855 -0.277626 -0.292155 -0.285855 -0.305677 -0.296977 -0.285855 -0.277626 -0.296977 -0.286207 -0.278819 -0.276804 -0.300332 -0.296861 -0.276804 -0.273868 -0.296861 -0.292155 -0.300332 -0.296861 -0.317919 -0.312557 -0.296861 -0.292155 -0.312557 -0.305677 -0.0176344 -0.0342573 -0.0168137 -0.032885 -0.0342573 -0.0526668 -0.032885 -0.0507557 -0.0168137 -0.032885 -0.0153969 -0.0305539 -0.032885 -0.0507557 -0.0305539 -0.0475523 0 -0.00424723 0 -0.00358093 -0.00424723 -0.0153969 -0.00358093 -0.0137976 0 -0.00358093 0 -0.00269701 -0.00358093 -0.0137976 -0.00269701 -0.0115547 0 -0.00492932 0 -0.00462394 -0.00492932 -0.0176344 -0.00462394 -0.0168137 0 -0.00462394 0 -0.00424723 -0.00462394 -0.0168137 -0.00424723 -0.0153969 -0.204579 -0.208802 -0.184076 -0.186732 -0.208802 -0.21352 -0.186732 -0.190632 -0.184076 -0.186732 -0.163573 -0.16637 -0.186732 -0.190632 -0.16637 -0.169438 -0.253037 -0.257911 -0.228144 -0.232682 -0.257911 -0.263189 -0.232682 -0.23801 -0.228144 -0.232682 -0.204579 -0.208802 -0.232682 -0.23801 -0.208802 -0.21352 -0.263189 -0.268337 -0.23801 -0.243961 -0.268337 -0.272296 -0.243961 -0.249859 -0.23801 -0.243961 -0.21352 -0.219251 -0.243961 -0.249859 -0.219251 -0.225723 -0.21352 -0.219251 -0.190632 -0.195615 -0.219251 -0.225723 -0.195615 -0.201726 -0.190632 -0.195615 -0.169438 -0.173554 -0.195615 -0.201726 -0.173554 -0.178936 -0.329358 -0.30537 -0.313502 -0.285236 -0.30537 -0.271043 -0.285236 -0.248455 -0.313502 -0.285236 -0.292856 -0.260905 -0.285236 -0.248455 -0.260905 -0.222635 -0.292856 -0.260905 -0.267235 -0.232727 -0.260905 -0.222635 -0.232727 -0.194262 -0.267235 -0.232727 -0.237021 -0.201519 -0.232727 -0.194262 -0.201519 -0.164351 -0.324684 -0.314898 -0.310476 -0.294155 -0.314898 -0.292856 -0.294155 -0.267235 -0.310476 -0.294155 -0.289765 -0.267504 -0.294155 -0.267235 -0.267504 -0.237021 -0.338499 -0.340466 -0.333515 -0.33007 -0.340466 -0.329358 -0.33007 -0.313502 -0.333515 -0.33007 -0.324684 -0.314898 -0.33007 -0.313502 -0.314898 -0.292856 -0.225824 -0.204365 -0.221756 -0.201524 -0.204365 -0.182354 -0.201524 -0.180349 -0.221756 -0.201524 -0.215839 -0.197158 -0.201524 -0.180349 -0.197158 -0.177138 -0.182354 -0.160434 -0.180349 -0.158892 -0.160434 -0.138899 -0.158892 -0.137528 -0.180349 -0.158892 -0.177138 -0.156446 -0.158892 -0.137528 -0.156446 -0.135557 -0.177138 -0.156446 -0.172316 -0.152713 -0.156446 -0.135557 -0.152713 -0.132591 -0.172316 -0.152713 -0.165549 -0.147332 -0.152713 -0.132591 -0.147332 -0.12829 -0.215839 -0.197158 -0.207732 -0.190885 -0.197158 -0.177138 -0.190885 -0.172316 -0.207732 -0.190885 -0.197222 -0.182403 -0.190885 -0.172316 -0.182403 -0.165549 -0.271043 -0.290057 -0.230252 -0.250591 -0.290057 -0.305444 -0.250591 -0.267825 -0.230252 -0.250591 -0.187109 -0.207177 -0.250591 -0.267825 -0.207177 -0.224877 -0.305444 -0.317336 -0.267825 -0.281798 -0.317336 -0.326066 -0.281798 -0.292466 -0.267825 -0.281798 -0.224877 -0.239828 -0.281798 -0.292466 -0.239828 -0.25197 -0.224877 -0.239828 -0.180578 -0.195873 -0.239828 -0.25197 -0.195873 -0.208254 -0.180578 -0.195873 -0.138601 -0.15157 -0.195873 -0.208254 -0.15157 -0.164538 -0.187109 -0.207177 -0.145122 -0.163709 -0.207177 -0.224877 -0.163709 -0.180578 -0.145122 -0.163709 -0.10672 -0.123447 -0.163709 -0.180578 -0.123447 -0.138601 -0.0536089 -0.0732343 -0.0330047 -0.0482289 -0.0732343 -0.0950365 -0.0482289 -0.0656795 -0.0330047 -0.0482289 -0.0161143 -0.0273996 -0.0482289 -0.0656795 -0.0273996 -0.0408174 -0.023107 -0.0367751 -0.0105964 -0.020397 -0.0367751 -0.0536089 -0.020397 -0.0330047 -0.0105964 -0.020397 -0.000696812 -0.00719146 -0.020397 -0.0330047 -0.00719146 -0.0161143 -0.0553539 -0.0784573 -0.0380022 -0.0561171 -0.0784573 -0.105091 -0.0561171 -0.0776841 -0.0380022 -0.0561171 -0.023107 -0.0367751 -0.0561171 -0.0776841 -0.0367751 -0.0536089 -0.105091 -0.134167 -0.0776841 -0.102045 -0.134167 -0.164351 -0.102045 -0.128263 -0.0776841 -0.102045 -0.0536089 -0.0732343 -0.102045 -0.128263 -0.0732343 -0.0950365 -0.148782 -0.191662 -0.131557 -0.175582 -0.191662 -0.227853 -0.175582 -0.21601 -0.131557 -0.175582 -0.11266 -0.155554 -0.175582 -0.21601 -0.155554 -0.197849 -0.11266 -0.155554 -0.093495 -0.133151 -0.155554 -0.197849 -0.133151 -0.175179 -0.093495 -0.133151 -0.0752549 -0.110281 -0.133151 -0.175179 -0.110281 -0.149523 -0.0428501 -0.0739351 -0.033608 -0.0596122 -0.0739351 -0.11266 -0.0596122 -0.093495 -0.033608 -0.0596122 -0.0255429 -0.0467368 -0.0596122 -0.093495 -0.0467368 -0.0752549 -0.0644464 -0.104235 -0.0532586 -0.0891595 -0.104235 -0.148782 -0.0891595 -0.131557 -0.0532586 -0.0891595 -0.0428501 -0.0739351 -0.0891595 -0.131557 -0.0739351 -0.11266 -0.217678 -0.200276 -0.221786 -0.20239 -0.200276 -0.181025 -0.20239 -0.181575 -0.221786 -0.20239 -0.221052 -0.199933 -0.20239 -0.181575 -0.199933 -0.178304 -0.197222 -0.184262 -0.209246 -0.194048 -0.184262 -0.168996 -0.194048 -0.17668 -0.209246 -0.194048 -0.217678 -0.200276 -0.194048 -0.17668 -0.200276 -0.181025 -0.168996 -0.151721 -0.17668 -0.157592 -0.151721 -0.133612 -0.157592 -0.136301 -0.17668 -0.157592 -0.181025 -0.160158 -0.157592 -0.136301 -0.160158 -0.138989 -0.181025 -0.160158 -0.181575 -0.159536 -0.160158 -0.138989 -0.159536 -0.13549 -0.181575 -0.159536 -0.178304 -0.155148 -0.159536 -0.13549 -0.155148 -0.131991 0.0488399 0.0653667 0.0613778 0.0794895 0.0653667 0.0823836 0.0794895 0.0979202 0.0613778 0.0794895 0.0731834 0.0927901 0.0794895 0.0979202 0.0927901 0.112397 0.0169537 0.0327356 0.0267485 0.0439776 0.0327356 0.0488399 0.0439776 0.0613778 0.0267485 0.0439776 0.0360531 0.0546183 0.0439776 0.0613778 0.0546183 0.0731834 0.000422509 0.00233082 -0.000743221 0.000935139 0.00233082 0.00464743 0.000935139 0.0027302 -0.000743221 0.000935139 0 0 0.000935139 0.0027302 0 0 0 -7.14365e-05 0 -0.00174511 -7.14365e-05 0.000422509 -0.00174511 -0.000743221 0 -0.00174511 0 0 -0.00174511 -0.000743221 0 0 0 0.000529706 0 0.000358347 0.000529706 0.00185601 0.000358347 0.0014987 0 0.000358347 0 -7.14365e-05 0.000358347 0.0014987 -7.14365e-05 0.000422509 0.00185601 0.00352082 0.0014987 0.00332675 0.00352082 0.00505822 0.00332675 0.00545986 0.0014987 0.00332675 0.000422509 0.00233082 0.00332675 0.00545986 0.00233082 0.00464743 -0.22811 -0.262035 -0.199349 -0.235432 -0.262035 -0.289765 -0.235432 -0.267504 -0.199349 -0.235432 -0.167497 -0.203249 -0.235432 -0.267504 -0.203249 -0.237021 -0.167497 -0.203249 -0.135403 -0.168548 -0.203249 -0.237021 -0.168548 -0.201519 -0.135403 -0.168548 -0.105091 -0.134167 -0.168548 -0.201519 -0.134167 -0.164351 -0.0981537 -0.131745 -0.0753812 -0.103806 -0.131745 -0.167497 -0.103806 -0.135403 -0.0753812 -0.103806 -0.0553539 -0.0784573 -0.103806 -0.135403 -0.0784573 -0.105091 -0.149523 -0.18992 -0.123248 -0.161103 -0.18992 -0.22811 -0.161103 -0.199349 -0.123248 -0.161103 -0.0981537 -0.131745 -0.161103 -0.199349 -0.131745 -0.167497 -0.14546 -0.130691 -0.132198 -0.119337 -0.130691 -0.114621 -0.119337 -0.105046 -0.132198 -0.119337 -0.117222 -0.106226 -0.119337 -0.105046 -0.106226 -0.0937828 -0.168996 -0.158413 -0.151721 -0.143171 -0.158413 -0.14546 -0.143171 -0.132198 -0.151721 -0.143171 -0.133612 -0.126408 -0.143171 -0.132198 -0.126408 -0.117222 -0.197222 -0.182403 -0.184262 -0.171564 -0.182403 -0.165549 -0.171564 -0.156614 -0.184262 -0.171564 -0.168996 -0.158413 -0.171564 -0.156614 -0.158413 -0.14546 -0.165549 -0.147332 -0.156614 -0.140034 -0.147332 -0.12829 -0.140034 -0.122359 -0.156614 -0.140034 -0.14546 -0.130691 -0.140034 -0.122359 -0.130691 -0.114621 0.211454 0.225133 0.20174 0.21319 0.225133 0.236318 0.21319 0.222014 0.20174 0.21319 0.190618 0.199739 0.21319 0.222014 0.199739 0.206102 0.190618 0.199739 0.178122 0.184857 0.199739 0.206102 0.184857 0.188702 0.178122 0.184857 0.16435 0.168689 0.184857 0.188702 0.168689 0.169996 0.165652 0.179125 0.157409 0.168851 0.179125 0.190618 0.168851 0.178122 0.157409 0.168851 0.14794 0.157318 0.168851 0.178122 0.157318 0.16435 0.178515 0.195766 0.17267 0.188091 0.195766 0.211454 0.188091 0.20174 0.17267 0.188091 0.165652 0.179125 0.188091 0.20174 0.179125 0.190618 -0.0475523 -0.0652549 -0.0432504 -0.059533 -0.0652549 -0.083166 -0.059533 -0.0758639 -0.0432504 -0.059533 -0.0379663 -0.0526432 -0.059533 -0.0758639 -0.0526432 -0.0671991 -0.0526668 -0.0726309 -0.0507557 -0.0696634 -0.0726309 -0.092595 -0.0696634 -0.0887902 -0.0507557 -0.0696634 -0.0475523 -0.0652549 -0.0696634 -0.0887902 -0.0652549 -0.083166 -0.092595 -0.113103 -0.0887902 -0.108098 -0.113103 -0.133612 -0.108098 -0.126408 -0.0887902 -0.108098 -0.083166 -0.100741 -0.108098 -0.126408 -0.100741 -0.117222 -