# vtk DataFile Version 3.0
#This file was generated by the deal.II library on 2020/12/27 at 13:44:17
ASCII
DATASET UNSTRUCTURED_GRID

POINTS 7452 double
0.125 0.124999 0
0.125 0.0833324 0
0.166666 0.124998 0
0.166667 0.0833322 0
0.125 0.166665 0
0.125 0.124999 0
0.166666 0.166664 0
0.166666 0.124998 0
0.0833332 0.166666 0
0.0833332 0.124999 0
0.125 0.166665 0
0.125 0.124999 0
0.0833332 0.124999 0
0.0833333 0.0833327 0
0.125 0.124999 0
0.125 0.0833324 0
0.458332 0.541659 0
0.499999 0.541659 0
0.458332 0.583326 0
0.499999 0.583326 0
0.416666 0.541659 0
0.458332 0.541659 0
0.416666 0.583326 0
0.458332 0.583326 0
0.416666 0.499992 0
0.458332 0.499992 0
0.416666 0.541659 0
0.458332 0.541659 0
0.458332 0.499992 0
0.499999 0.499992 0
0.458332 0.541659 0
0.499999 0.541659 0
0.541666 0.624993 0
0.583332 0.624993 0
0.541666 0.66666 0
0.583332 0.66666 0
0.499999 0.624993 0
0.541666 0.624993 0
0.499999 0.66666 0
0.541666 0.66666 0
0.499999 0.583326 0
0.541666 0.583326 0
0.499999 0.624993 0
0.541666 0.624993 0
0.541666 0.583326 0
0.583332 0.583326 0
0.541666 0.624993 0
0.583332 0.624993 0
0.499999 0.541659 0
0.541666 0.541659 0
0.499999 0.583326 0
0.541666 0.583326 0
0.499999 0.499992 0
0.541666 0.499992 0
0.499999 0.541659 0
0.541666 0.541659 0
0.541666 0.499992 0
0.583332 0.499992 0
0.541666 0.541659 0
0.583332 0.541659 0
0.541666 0.541659 0
0.583332 0.541659 0
0.541666 0.583326 0
0.583332 0.583326 0
0.499999 0.458326 0
0.499999 0.416659 0
0.541666 0.458326 0
0.541666 0.416659 0
0.541666 0.458326 0
0.541666 0.416659 0
0.583332 0.458326 0
0.583332 0.416659 0
0.541666 0.499992 0
0.541666 0.458326 0
0.583332 0.499992 0
0.583332 0.458326 0
0.499999 0.499992 0
0.499999 0.458326 0
0.541666 0.499992 0
0.541666 0.458326 0
0.208333 0.20833 0
0.166666 0.208331 0
0.208333 0.166664 0
0.166666 0.166664 0
0.208333 0.249996 0
0.166666 0.249997 0
0.208333 0.20833 0
0.166666 0.208331 0
0.499999 0.374993 0
0.541666 0.374993 0
0.499999 0.416659 0
0.541666 0.416659 0
0.499999 0.333326 0
0.541666 0.333326 0
0.499999 0.374993 0
0.541666 0.374993 0
0.541666 0.333326 0
0.583332 0.333327 0
0.541666 0.374993 0
0.583332 0.374993 0
0.541666 0.374993 0
0.583332 0.374993 0
0.541666 0.416659 0
0.583332 0.416659 0
0.458332 0.499992 0
0.458332 0.458326 0
0.499999 0.499992 0
0.499999 0.458326 0
0.416666 0.499992 0
0.416666 0.458326 0
0.458332 0.499992 0
0.458332 0.458326 0
0.416666 0.458326 0
0.416666 0.416659 0
0.458332 0.458326 0
0.458332 0.416659 0
0.458332 0.458326 0
0.458332 0.416659 0
0.499999 0.458326 0
0.499999 0.416659 0
0.125 0.208331 0
0.125 0.166665 0
0.166666 0.208331 0
0.166666 0.166664 0
0.125 0.249998 0
0.125 0.208331 0
0.166666 0.249997 0
0.166666 0.208331 0
0.0833331 0.249998 0
0.0833331 0.208332 0
0.125 0.249998 0
0.125 0.208331 0
0.0833331 0.208332 0
0.0833332 0.166666 0
0.125 0.208331 0
0.125 0.166665 0
0.416666 0.583326 0
0.458332 0.583326 0
0.416666 0.624993 0
0.458332 0.624993 0
0.458332 0.583326 0
0.499999 0.583326 0
0.458332 0.624993 0
0.499999 0.624993 0
0.458332 0.624993 0
0.499999 0.624993 0
0.458332 0.66666 0
0.499999 0.66666 0
0.416666 0.624993 0
0.458332 0.624993 0
0.416666 0.66666 0
0.458332 0.66666 0
0.458333 0.708327 0
0.499999 0.708327 0
0.458333 0.749994 0
0.499999 0.749994 0
0.416666 0.708327 0
0.458333 0.708327 0
0.416666 0.749994 0
0.458333 0.749994 0
0.416666 0.66666 0
0.458332 0.66666 0
0.416666 0.708327 0
0.458333 0.708327 0
0.458332 0.66666 0
0.499999 0.66666 0
0.458333 0.708327 0
0.499999 0.708327 0
0.458332 0.333326 0
0.499999 0.333326 0
0.458332 0.374993 0
0.499999 0.374993 0
0.458332 0.374993 0
0.499999 0.374993 0
0.458332 0.416659 0
0.499999 0.416659 0
0.416666 0.374993 0
0.458332 0.374993 0
0.416666 0.416659 0
0.458332 0.416659 0
0.416666 0.374993 0
0.416666 0.416659 0
0.374999 0.374993 0
0.374999 0.416659 0
0.624999 0.66666 0
0.624999 0.708328 0
0.583332 0.66666 0
0.583333 0.708327 0
0.666666 0.666661 0
0.666666 0.708328 0
0.624999 0.66666 0
0.624999 0.708328 0
0.666666 0.708328 0
0.666666 0.749995 0
0.624999 0.708328 0
0.624999 0.749995 0
0.624999 0.708328 0
0.624999 0.749995 0
0.583333 0.708327 0
0.583333 0.749995 0
0.0416666 0.125 0
0.0416666 0.083333 0
0.0833332 0.124999 0
0.0833333 0.0833327 0
0.0416666 0.166666 0
0.0416666 0.125 0
0.0833332 0.166666 0
0.0833332 0.124999 0
0 0.166667 0
0 0.125 0
0.0416666 0.166666 0
0.0416666 0.125 0
0 0.125 0
0 0.0833333 0
0.0416666 0.125 0
0.0416666 0.083333 0
0.541667 0.0416655 0
0.541667 0 0
0.583333 0.0416656 0
0.583333 0 0
0.541666 0.0833311 0
0.541667 0.0416655 0
0.583333 0.0833311 0
0.583333 0.0416656 0
0.5 0.0833311 0
0.5 0.0416655 0
0.541666 0.0833311 0
0.541667 0.0416655 0
0.5 0.0416655 0
0.5 0 0
0.541667 0.0416655 0
0.541667 0 0
0 0.0833333 0
0 0.0416667 0
0.0416666 0.083333 0
0.0416666 0.0416665 0
0 0.0416667 0
0 0 0
0.0416666 0.0416665 0
0.0416667 0 0
0.0416666 0.0416665 0
0.0416667 0 0
0.0833333 0.0416664 0
0.0833333 0 0
0.0416666 0.083333 0
0.0416666 0.0416665 0
0.0833333 0.0833327 0
0.0833333 0.0416664 0
0.0833331 0.291665 0
0.0833331 0.249998 0
0.125 0.291664 0
0.125 0.249998 0
0.125 0.291664 0
0.125 0.249998 0
0.166666 0.291663 0
0.166666 0.249997 0
0.125 0.33333 0
0.125 0.291664 0
0.166666 0.33333 0
0.166666 0.291663 0
0.0833331 0.333331 0
0.0833331 0.291665 0
0.125 0.33333 0
0.125 0.291664 0
0.666666 0.458327 0
0.624999 0.458326 0
0.666666 0.41666 0
0.624999 0.41666 0
0.666666 0.499993 0
0.624999 0.499993 0
0.666666 0.458327 0
0.624999 0.458326 0
0.624999 0.499993 0
0.583332 0.499992 0
0.624999 0.458326 0
0.583332 0.458326 0
0.624999 0.458326 0
0.583332 0.458326 0
0.624999 0.41666 0
0.583332 0.416659 0
0 0.208333 0
0 0.166667 0
0.0416666 0.208333 0
0.0416666 0.166666 0
0.0416666 0.208333 0
0.0416666 0.166666 0
0.0833331 0.208332 0
0.0833332 0.166666 0
0.708333 0.666661 0
0.749999 0.666662 0
0.708333 0.708328 0
0.749999 0.708329 0
0.708333 0.708328 0
0.749999 0.708329 0
0.708333 0.749996 0
0.749999 0.749996 0
0.666666 0.708328 0
0.708333 0.708328 0
0.666666 0.749995 0
0.708333 0.749996 0
0.666666 0.666661 0
0.708333 0.666661 0
0.666666 0.708328 0
0.708333 0.708328 0
0.416666 0.0833311 0
0.375 0.0833312 0
0.416667 0.0416656 0
0.375 0.0416656 0
0.375 0.0833312 0
0.333333 0.0833314 0
0.375 0.0416656 0
0.333333 0.0416657 0
0.375 0.0416656 0
0.333333 0.0416657 0
0.375 0 0
0.333333 0 0
0.416667 0.0416656 0
0.375 0.0416656 0
0.416667 0 0
0.375 0 0
0.458333 0.749994 0
0.499999 0.749994 0
0.458333 0.791662 0
0.499999 0.791662 0
0.666666 0.624994 0
0.708333 0.624994 0
0.666666 0.666661 0
0.708333 0.666661 0
0.666666 0.583327 0
0.708333 0.583327 0
0.666666 0.624994 0
0.708333 0.624994 0
0.708333 0.624994 0
0.749999 0.624995 0
0.708333 0.666661 0
0.749999 0.666662 0
0.625 0.0833312 0
0.583333 0.0833311 0
0.625 0.0416656 0
0.583333 0.0416656 0
0.625 0.0416656 0
0.583333 0.0416656 0
0.625 0 0
0.583333 0 0
0.374999 0.499993 0
0.333332 0.499993 0
0.374999 0.458326 0
0.333332 0.458326 0
0.416666 0.458326 0
0.374999 0.458326 0
0.416666 0.416659 0
0.374999 0.416659 0
0.416666 0.499992 0
0.374999 0.499993 0
0.416666 0.458326 0
0.374999 0.458326 0
0.624999 0.54166 0
0.624999 0.583326 0
0.583332 0.541659 0
0.583332 0.583326 0
0.624999 0.499993 0
0.624999 0.54166 0
0.583332 0.499992 0
0.583332 0.541659 0
0.666666 0.499993 0
0.666666 0.54166 0
0.624999 0.499993 0
0.624999 0.54166 0
0.666666 0.54166 0
0.666666 0.583327 0
0.624999 0.54166 0
0.624999 0.583326 0
0.5 0.124997 0
0.5 0.0833311 0
0.541666 0.124997 0
0.541666 0.0833311 0
0.541666 0.124997 0
0.541666 0.0833311 0
0.583333 0.124997 0
0.583333 0.0833311 0
0.666666 0.374994 0
0.666666 0.41666 0
0.624999 0.374993 0
0.624999 0.41666 0
0.624999 0.374993 0
0.624999 0.41666 0
0.583332 0.374993 0
0.583332 0.416659 0
0.416666 0.499992 0
0.416666 0.541659 0
0.374999 0.499993 0
0.374999 0.541659 0
0.416666 0.541659 0
0.416666 0.583326 0
0.374999 0.541659 0
0.374999 0.583326 0
0.374999 0.541659 0
0.374999 0.583326 0
0.333332 0.54166 0
0.333332 0.583326 0
0.374999 0.499993 0
0.374999 0.541659 0
0.333332 0.499993 0
0.333332 0.54166 0
0.416666 0.624993 0
0.416666 0.66666 0
0.374999 0.624993 0
0.374999 0.66666 0
0.374999 0.624993 0
0.374999 0.66666 0
0.333332 0.624994 0
0.333333 0.666661 0
0.374999 0.583326 0
0.374999 0.624993 0
0.333332 0.583326 0
0.333332 0.624994 0
0.416666 0.583326 0
0.416666 0.624993 0
0.374999 0.583326 0
0.374999 0.624993 0
0.666666 0.54166 0
0.708333 0.541661 0
0.666666 0.583327 0
0.708333 0.583327 0
0.666666 0.499993 0
0.708332 0.499994 0
0.666666 0.54166 0
0.708333 0.541661 0
0.416666 0.708327 0
0.416666 0.749994 0
0.374999 0.708328 0
0.374999 0.749995 0
0.416666 0.66666 0
0.416666 0.708327 0
0.374999 0.66666 0
0.374999 0.708328 0
0.666666 0.583327 0
0.666666 0.624994 0
0.624999 0.583326 0
0.624999 0.624993 0
0.666666 0.624994 0
0.666666 0.666661 0
0.624999 0.624993 0
0.624999 0.66666 0
0.624999 0.624993 0
0.624999 0.66666 0
0.583332 0.624993 0
0.583332 0.66666 0
0.624999 0.583326 0
0.624999 0.624993 0
0.583332 0.583326 0
0.583332 0.624993 0
0.499999 0.66666 0
0.541666 0.66666 0
0.499999 0.708327 0
0.541666 0.708327 0
0.541666 0.66666 0
0.583332 0.66666 0
0.541666 0.708327 0
0.583333 0.708327 0
0.541666 0.708327 0
0.583333 0.708327 0
0.541666 0.749994 0
0.583333 0.749995 0
0.499999 0.708327 0
0.541666 0.708327 0
0.499999 0.749994 0
0.541666 0.749994 0
0.416666 0.0833311 0
0.416667 0.0416656 0
0.458333 0.0833311 0
0.458333 0.0416655 0
0.416667 0.0416656 0
0.416667 0 0
0.458333 0.0416655 0
0.458333 0 0
0.458333 0.0416655 0
0.458333 0 0
0.5 0.0416655 0
0.5 0 0
0.458333 0.0833311 0
0.458333 0.0416655 0
0.5 0.0833311 0
0.5 0.0416655 0
0.541666 0.791662 0
0.583333 0.791662 0
0.541666 0.833329 0
0.583333 0.833329 0
0.499999 0.749994 0
0.541666 0.749994 0
0.499999 0.791662 0
0.541666 0.791662 0
0.541666 0.749994 0
0.583333 0.749995 0
0.541666 0.791662 0
0.583333 0.791662 0
0.208333 0.041666 0
0.166667 0.0416661 0
0.208333 0 0
0.166667 0 0
0.25 0.0416658 0
0.208333 0.041666 0
0.25 0 0
0.208333 0 0
0.333333 0.0833314 0
0.291666 0.0833315 0
0.333333 0.0416657 0
0.291667 0.0416658 0
0.291667 0.0416658 0
[...]
POINT_DATA 7452
SCALARS solution_0 double 1
LOOKUP_TABLE default
-0.0245145 -0.0104806 -0.0428562 -0.0213564 -0.0399664 -0.0245145 -0.0654747 -0.0428562 -0.0197612 -0.0111009 -0.0399664 -0.0245145 -0.0111009 -0.00413047 -0.0245145 -0.0104806 -0.0189009 -0.0225354 0.0167869 0.0132047 -0.0158068 -0.0189009 0.0197004 0.0167869 -0.0508516 -0.0538098 -0.0158068 -0.0189009 -0.0538098 -0.0572872 -0.0189009 -0.0225354 0.0458503 0.0400733 0.084703 0.0785513 0.0502979 0.0458503 0.0890756 0.084703 0.0132047 0.00880986 0.0502979 0.0458503 0.00880986 0.00345336 0.0458503 0.0400733 -0.0225354 -0.0267712 0.0132047 0.00880986 -0.0572872 -0.0612178 -0.0225354 -0.0267712 -0.0612178 -0.0655244 -0.0267712 -0.0316452 -0.0267712 -0.0316452 0.00880986 0.00345336 -0.0915205 -0.1262 -0.0949493 -0.128927 -0.0949493 -0.128927 -0.0986024 -0.13206 -0.0612178 -0.0949493 -0.0655244 -0.0986024 -0.0572872 -0.0915205 -0.0612178 -0.0949493 -0.119934 -0.0851326 -0.0955477 -0.0654747 -0.134743 -0.0986831 -0.119934 -0.0851326 -0.163022 -0.165198 -0.1262 -0.128927 -0.20313 -0.205388 -0.163022 -0.165198 -0.205388 -0.208539 -0.165198 -0.168001 -0.165198 -0.168001 -0.128927 -0.13206 -0.0538098 -0.0885054 -0.0572872 -0.0915205 -0.0508516 -0.086027 -0.0538098 -0.0885054 -0.086027 -0.122203 -0.0885054 -0.123947 -0.0885054 -0.123947 -0.0915205 -0.1262 -0.0542898 -0.0399664 -0.0851326 -0.0654747 -0.0648409 -0.0542898 -0.0986831 -0.0851326 -0.0351658 -0.0281632 -0.0648409 -0.0542898 -0.0281632 -0.0197612 -0.0542898 -0.0399664 0.0197004 0.0167869 0.0560722 0.0536458 0.0167869 0.0132047 0.0536458 0.0502979 0.0536458 0.0502979 0.0919383 0.0890756 0.0560722 0.0536458 0.0934299 0.0919383 0.131549 0.129592 0.171419 0.171111 0.131457 0.131549 0.168929 0.171419 0.0934299 0.0919383 0.131457 0.131549 0.0919383 0.0890756 0.131549 0.129592 -0.201602 -0.20313 -0.161534 -0.163022 -0.161534 -0.163022 -0.123947 -0.1262 -0.160071 -0.161534 -0.122203 -0.123947 -0.160071 -0.122203 -0.158423 -0.120583 0.0703414 0.10993 0.0785513 0.119079 0.0598482 0.0977141 0.0703414 0.10993 0.0977141 0.137309 0.10993 0.151281 0.10993 0.151281 0.119079 0.161297 -0.00274064 -0.00068973 -0.0111009 -0.00413047 -0.00547034 -0.00274064 -0.0197612 -0.0111009 0 0 -0.00547034 -0.00274064 0 0 -0.00274064 -0.00068973 -0.0759374 0 -0.0676107 0 -0.142221 -0.0759374 -0.13006 -0.0676107 -0.146777 -0.0787925 -0.142221 -0.0759374 -0.0787925 0 -0.0759374 0 0 0 -0.00068973 -0.000861597 0 0 -0.000861597 0 -0.000861597 0 -0.000100125 0 -0.00068973 -0.000861597 -0.00413047 -0.000100125 -0.0388218 -0.0351658 -0.0699311 -0.0648409 -0.0699311 -0.0648409 -0.10432 -0.0986831 -0.0686059 -0.0699311 -0.100908 -0.10432 -0.038192 -0.0388218 -0.0686059 -0.0699311 -0.106345 -0.10243 -0.139946 -0.13565 -0.0748345 -0.070087 -0.106345 -0.10243 -0.070087 -0.0655244 -0.10243 -0.0986024 -0.10243 -0.0986024 -0.13565 -0.13206 0 0 -0.00804089 -0.00547034 -0.00804089 -0.00547034 -0.0281632 -0.0197612 0.0469377 0.0315571 0.0821448 0.0630748 0.0821448 0.0630748 0.118968 0.0961231 0.0977141 0.0821448 0.137309 0.118968 0.0598482 0.0469377 0.0977141 0.0821448 -0.133654 -0.117793 -0.0679304 -0.0569745 -0.117793 -0.0975842 -0.0569745 -0.0447311 -0.0569745 -0.0447311 0 0 -0.0679304 -0.0569745 0 0 0.171419 0.171111 0.20984 0.211924 0.0239024 0.0134586 0.0598482 0.0469377 -0.010313 -0.0185712 0.0239024 0.0134586 0.0134586 0.00145106 0.0469377 0.0315571 -0.110634 -0.13006 -0.0545571 -0.0676107 -0.0545571 -0.0676107 0 0 -0.0483582 -0.0462054 -0.0840269 -0.0816607 -0.086027 -0.0840269 -0.122203 -0.120583 -0.0508516 -0.0483582 -0.086027 -0.0840269 -0.0371201 -0.00293727 -0.0316452 0.00345336 -0.070087 -0.0371201 -0.0655244 -0.0316452 -0.0748345 -0.043096 -0.070087 -0.0371201 -0.043096 -0.010313 -0.0371201 -0.00293727 -0.211068 -0.146777 -0.20828 -0.142221 -0.20828 -0.142221 -0.196548 -0.13006 -0.177915 -0.139946 -0.172161 -0.13565 -0.172161 -0.13565 -0.168001 -0.13206 -0.0508516 -0.0158068 -0.0483582 -0.0132313 -0.0158068 0.0197004 -0.0132313 0.0219819 -0.0132313 0.0219819 -0.0112368 0.0234198 -0.0483582 -0.0132313 -0.0462054 -0.0112368 0.0560722 0.0934299 0.0575906 0.0935108 0.0575906 0.0935108 0.0578574 0.0917669 0.0219819 0.0575906 0.0234198 0.0578574 0.0197004 0.0560722 0.0219819 0.0575906 -0.043096 -0.0494641 -0.010313 -0.0185712 -0.0748345 -0.0799222 -0.043096 -0.0494641 0.131457 0.168929 0.12904 0.163208 0.0934299 0.131457 0.0935108 0.12904 -0.010313 0.0239024 -0.00293727 0.032786 0.0239024 0.0598482 0.032786 0.0703414 0.032786 0.0703414 0.0400733 0.0785513 -0.00293727 0.032786 0.00345336 0.0400733 0.0890756 0.084703 0.129592 0.125521 0.084703 0.0785513 0.125521 0.119079 0.125521 0.119079 0.167783 0.161297 0.129592 0.125521 0.171111 0.167783 -0.133654 -0.0679304 -0.143769 -0.0758012 -0.0679304 0 -0.0758012 0 -0.0758012 0 -0.0787925 0 -0.143769 -0.0758012 -0.146777 -0.0787925 0.209915 0.203781 0.248749 0.243815 0.171111 0.167783 0.211924 0.209915 0.167783 0.161297 0.209915 0.203781 -0.0123319 -0.00559531 0 0 -0.021365 -0.0123319 0 0 -0.0975842 -0.0759457 -0.0447311 -0.0321185 -0.0321185 -0.021365 0 0 -0.0447311 -0.0321185 0 0 0.193134 0.233369 0.203781 0.243815 0.151281 0.193134 0.161297 0.203781 0.137309 0.177633 0.151281 0.193134 0.177633 0.21745 0.193134 0.233369 -0.161361 -0.128043 -0.121636 -0.0928876 -0.121636 -0.0928876 -0.0759457 -0.055077 -0.149112 -0.121636 -0.0975842 -0.0759457 -0.173568 -0.149112 -0.117793 -0.0975842 -0.205725 -0.143769 -0.211068 -0.146777 -0.00413047 -0.000100125 -0.0104806 -0.00142666 -0.000100125 0 -0.00142666 0 -0.00142666 0 -0.00559531 0 0.137309 0.118968 0.177633 0.157058 0.118968 0.0961231 0.157058 0.131042 -0.0660154 -0.0428562 -0.0363546 -0.0213564 -0.0928876 -0.0660154 -0.055077 -0.0363546 -0.128043 -0.0955477 -0.0928876 -0.0660154 -0.0955477 -0.0654747 -0.0660154 -0.0428562 -0.155251 -0.137317 -0.143003 -0.125594 -0.137317 -0.119934 -0.125594 -0.107741 -0.143003 -0.125594 -0.128043 -0.111795 -0.125594 -0.107741 -0.111795 -0.0955477 -0.169737 -0.15227 -0.164224 -0.146355 -0.15227 -0.134743 -0.146355 -0.127338 -0.164224 -0.146355 -0.155251 -0.137317 -0.146355 -0.127338 -0.137317 -0.119934 0.164227 0.145063 0.166392 0.149087 0.145063 0.12502 0.149087 0.1309 0.166392 0.149087 0.165856 0.150431 0.149087 0.1309 0.150431 0.134119 0.199006 0.182271 0.197537 0.182598 0.182271 0.164227 0.182598 0.166392 0.197537 0.182598 0.193321 0.180202 0.182598 0.166392 0.180202 0.165856 0.200501 0.180014 0.198314 0.179788 0.180014 0.158258 0.179788 0.159938 0.198314 0.179788 0.199006 0.182271 0.179788 0.159938 0.182271 0.164227 0.158258 0.135434 0.159938 0.13896 0.135434 0.11181 0.13896 0.11712 0.159938 0.13896 0.164227 0.145063 0.13896 0.11712 0.145063 0.12502 -0.174166 -0.142843 -0.152306 -0.122507 -0.142843 -0.112437 -0.122507 -0.0943498 -0.152306 -0.122507 -0.129395 -0.101906 -0.122507 -0.0943498 -0.101906 -0.0765511 -0.212021 -0.179951 -0.194244 -0.16219 -0.179951 -0.14694 -0.16219 -0.130168 -0.194244 -0.16219 -0.174166 -0.142843 -0.16219 -0.130168 -0.142843 -0.112437 -0.14694 -0.115203 -0.130168 -0.100012 -0.115203 -0.0862041 -0.100012 -0.0729351 -0.130168 -0.100012 -0.112437 -0.0843925 -0.100012 -0.0729351 -0.0843925 -0.0596405 -0.112437 -0.0843925 -0.0943498 -0.0688777 -0.0843925 -0.0596405 -0.0688777 -0.0467691 -0.0943498 -0.0688777 -0.0765511 -0.0540126 -0.0688777 -0.0467691 -0.0540126 -0.034758 -0.245197 -0.264011 -0.246746 -0.265969 -0.264011 -0.278788 -0.265969 -0.281123 -0.246746 -0.265969 -0.24839 -0.267831 -0.265969 -0.281123 -0.267831 -0.283035 -0.24839 -0.267831 -0.250254 -0.269639 -0.267831 -0.283035 -0.269639 -0.284541 -0.250254 -0.269639 -0.252321 -0.271393 -0.269639 -0.284541 -0.271393 -0.285575 -0.205388 -0.227013 -0.206963 -0.228644 -0.227013 -0.24839 -0.228644 -0.250254 -0.206963 -0.228644 -0.208539 -0.230833 -0.228644 -0.250254 -0.230833 -0.252321 -0.20313 -0.224431 -0.204259 -0.225572 -0.224431 -0.245197 -0.225572 -0.246746 -0.204259 -0.225572 -0.205388 -0.227013 -0.225572 -0.246746 -0.227013 -0.24839 0.0283668 0.0431441 0.0480003 0.0634613 0.0431441 0.0616276 0.0634613 0.082511 0.0480003 0.0634613 0.066311 0.0824422 0.0634613 0.082511 0.0824422 0.101859 0.00482785 0.0158975 0.0228886 0.0347694 0.0158975 0.0283668 0.0347694 0.0480003 0.0228886 0.0347694 0.0393843 0.0522218 0.0347694 0.0480003 0.0522218 0.066311 -0.0343946 -0.0267086 -0.0150633 -0.00502366 -0.0267086 -0.0172439 -0.00502366 0.00655226 -0.0150633 -0.00502366 0.00482785 0.0158975 -0.00502366 0.00655226 0.0158975 0.0283668 -0.0172439 -0.00515272 0.00655226 0.0205217 -0.00515272 0.0107737 0.0205217 0.0381952 0.00655226 0.0205217 0.0283668 0.0431441 0.0205217 0.0381952 0.0431441 0.0616276 -0.072869 -0.0687213 -0.0890126 -0.0838311 -0.0687213 -0.0636 -0.0838311 -0.0774887 -0.0890126 -0.0838311 -0.104755 -0.0984006 -0.0838311 -0.0774887 -0.0984006 -0.0907309 -0.040185 -0.0377906 -0.05654 -0.053312 -0.0377906 -0.0348395 -0.053312 -0.0493145 -0.05654 -0.053312 -0.072869 -0.0687213 -0.053312 -0.0493145 -0.0687213 -0.0636 -0.0348395 -0.0312948 -0.0493145 -0.044535 -0.0312948 -0.0271641 -0.044535 -0.0390182 -0.0493145 -0.044535 -0.0636 -0.0575227 -0.044535 -0.0390182 -0.0575227 -0.0505777 -0.0636 -0.0575227 -0.0774887 -0.0700434 -0.0575227 -0.0505777 -0.0700434 -0.0616322 -0.0774887 -0.0700434 -0.0907309 -0.0818499 -0.0700434 -0.0616322 -0.0818499 -0.0719487 -0.111787 -0.128829 -0.115416 -0.132994 -0.128829 -0.147022 -0.132994 -0.151851 -0.115416 -0.132994 -0.120116 -0.138338 -0.132994 -0.151851 -0.138338 -0.157738 -0.0799222 -0.0956389 -0.083207 -0.0989058 -0.0956389 -0.111787 -0.0989058 -0.115416 -0.083207 -0.0989058 -0.0870369 -0.103079 -0.0989058 -0.115416 -0.103079 -0.120116 -0.0748345 -0.0905898 -0.0773784 -0.0928954 -0.0905898 -0.106345 -0.0928954 -0.108957 -0.0773784 -0.0928954 -0.0799222 -0.0956389 -0.0928954 -0.108957 -0.0956389 -0.111787 -0.106345 -0.123146 -0.108957 -0.125539 -0.123146 -0.139946 -0.125539 -0.143255 -0.108957 -0.125539 -0.111787 -0.128829 -0.125539 -0.143255 -0.128829 -0.147022 0.416739 0.434145 0.657414 0.670013 0.434145 0.450156 0.670013 0.681481 0.657414 0.670013 1 1 0.670013 0.681481 1 1 0.267584 0.280423 0.304686 0.320498 0.280423 0.291699 0.320498 0.334853 0.304686 0.320498 0.416739 0.434145 0.320498 0.334853 0.434145 0.450156 0.291699 0.30145 0.334853 0.347771 0.30145 0.309722 0.347771 0.359283 0.334853 0.347771 0.450156 0.46477 0.347771 0.359283 0.46477 0.478001 0.450156 0.46477 0.681481 0.691826 0.46477 0.478001 0.691826 0.701068 0.681481 0.691826 1 1 0.691826 0.701068 1 1 0.11181 0.0877401 0.11712 0.094761 0.0877401 0.0636812 0.094761 0.0723306 0.11712 0.094761 0.12502 0.104414 0.094761 0.0723306 0.104414 0.0836434 0.0636812 0.0402178 0.0723306 0.0503991 0.0402178 0.0180803 0.0503991 0.0296823 0.0723306 0.0503991 0.0836434 0.0632156 0.0503991 0.0296823 0.0632156 0.0437676 0.0836434 0.0632156 0.0930417 0.0741284 0.0632156 0.0437676 0.0741284 0.0558919 0.0930417 0.0741284 0.0998125 0.0824225 0.0741284 0.0558919 0.0824225 0.0653867 0.12502 0.104414 0.1309 0.112106 0.104414 0.0836434 0.112106 0.0930417 0.1309 0.112106 0.134119 0.117154 0.112106 0.0930417 0.117154 0.0998125 -0.0255747 -0.0151039 -0.0356829 -0.0214507 -0.0151039 -0.00718216 -0.0214507 -0.00953762 -0.0356829 -0.0214507 -0.0367868 -0.0217444 -0.0214507 -0.00953762 -0.0217444 -0.00741548 0 0 -0.00952137 -0.00524441 0 0 -0.00524441 -0.00251326 -0.00952137 -0.00524441 -0.0255747 -0.0151039 -0.00524441 -0.00251326 -0.0151039 -0.00718216 0 0 -0.00251326 -0.000821905 0 0 -0.000821905 0.000219372 -0.00251326 -0.000821905 -0.00718216 -0.00188737 -0.000821905 0.000219372 -0.00188737 0.00161985 -0.00718216 -0.00188737 -0.00953762 -0.00083157 -0.00188737 0.00161985 -0.00083157 0.00532135 -0.00953762 -0.00083157 -0.00741548 0.00373017 -0.00083157 0.00532135 0.00373017 0.0120456 -0.199858 -0.200735 -0.179923 -0.180703 -0.200735 -0.201602 -0.180703 -0.181568 -0.179923 -0.180703 -0.160071 -0.160802 -0.180703 -0.181568 -0.160802 -0.161534 -0.0346923 -0.0426902 -0.0429047 -0.0524395 -0.0426902 -0.0500129 -0.0524395 -0.0612505 -0.0429047 -0.0524395 -0.0505777 -0.0616322 -0.0524395 -0.0612505 -0.0616322 -0.0719487 -0.0174232 -0.0262094 -0.0225007 -0.032859 -0.0262094 -0.0346923 -0.032859 -0.0429047 -0.0225007 -0.032859 -0.0271641 -0.0390182 -0.032859 -0.0429047 -0.0390182 -0.0505777 -0.00719583 -0.0126406 -0.0121737 -0.0193246 -0.0126406 -0.0179008 -0.0193246 -0.0262147 -0.0121737 -0.0193246 -0.0174232 -0.0262094 -0.0193246 -0.0262147 -0.0262094 -0.0346923 -0.0179008 -0.0228394 -0.0262147 -0.0326825 -0.0228394 -0.027321 -0.0326825 -0.0385641 -0.0262147 -0.0326825 -0.0346923 -0.0426902 -0.0326825 -0.0385641 -0.0426902 -0.0500129 0.228048 0.214297 0.223158 0.211084 0.214297 0.199006 0.211084 0.197537 0.223158 0.211084 0.215497 0.205107 0.211084 0.197537 0.205107 0.193321 0.250738 0.240204 0.242732 0.233713 0.240204 0.228048 0.233713 0.223158 0.242732 0.233713 0.232006 0.224465 0.233713 0.223158 0.224465 0.215497 0.267584 0.25316 0.256939 0.244726 0.25316 0.23715 0.244726 0.230861 0.256939 0.244726 0.250738 0.240204 0.244726 0.230861 0.240204 0.228048 0.23715 0.219578 0.230861 0.21537 0.219578 0.200501 0.21537 0.198314 0.230861 0.21537 0.228048 0.214297 0.21537 0.198314 0.214297 0.199006 -0.158423 -0.139503 -0.156973 -0.138254 -0.139503 -0.120583 -0.138254 -0.119414 -0.156973 -0.138254 -0.154937 -0.136615 -0.138254 -0.119414 -0.136615 -0.118178 -0.196485 -0.177752 -0.193538 -0.175746 -0.177752 -0.158423 -0.175746 -0.156973 -0.193538 -0.175746 -0.189388 -0.172739 -0.175746 -0.156973 -0.172739 -0.154937 -0.199858 -0.179923 -0.198491 -0.179032 -0.179923 -0.160071 -0.179032 -0.159247 -0.198491 -0.179032 -0.196485 -0.177752 -0.179032 -0.159247 -0.177752 -0.158423 -0.221058 -0.229883 -0.220504 -0.235235 -0.229883 -0.233033 -0.235235 -0.243694 -0.220504 -0.235235 -0.212936 -0.233251 -0.235235 -0.243694 -0.233251 -0.247387 -0.212936 -0.233251 -0.198774 -0.223586 -0.233251 -0.247387 -0.223586 -0.242988 -0.198774 -0.223586 -0.179263 -0.206906 -0.223586 -0.242988 -0.206906 -0.230411 -0.15535 -0.186561 -0.137136 -0.169379 -0.186561 -0.212936 -0.169379 -0.198774 -0.137136 -0.169379 -0.117364 -0.148779 -0.169379 -0.198774 -0.148779 -0.179263 -0.18132 -0.205056 -0.170506 -0.198788 -0.205056 -0.221058 -0.198788 -0.220504 -0.170506 -0.198788 -0.15535 -0.186561 -0.198788 -0.220504 -0.186561 -0.212936 0.0393843 0.0522218 0.0548418 0.0687632 0.0522218 0.066311 0.0687632 0.083765 0.0548418 0.0687632 0.0694775 0.084548 0.0687632 0.083765 0.084548 0.100449 0.066311 0.0824422 0.083765 0.100522 0.0824422 0.101859 0.100522 0.120138 0.083765 0.100522 0.100449 0.117771 0.100522 0.120138 0.117771 0.137472 0.100449 0.117771 0.11624 0.134078 0.117771 0.137472 0.134078 0.153832 0.11624 0.134078 0.131042 0.149362 0.134078 0.153832 0.149362 0.169129 0.0694775 0.084548 0.0832404 0.0994358 0.084548 0.100449 0.0994358 0.11624 0.0832404 0.0994358 0.0961231 0.113583 0.0994358 0.11624 0.113583 0.131042 0.0567055 0.0724622 0.0552983 0.0702355 0.0724622 0.0877071 0.0702355 0.0845283 0.0552983 0.0702355 0.0533081 0.0673186 0.0702355 0.0845283 0.0673186 0.0805625 0.0241364 0.0405717 0.0240022 0.0398502 0.0405717 0.0567055 0.0398502 0.0552983 0.0240022 0.0398502 0.0235498 0.0386783 0.0398502 0.0552983 0.0386783 0.0533081 0.0234198 0.0406386 0.0240072 0.0408344 0.0406386 0.0578574 0.0408344 0.0576015 0.0240072 0.0408344 0.0241364 0.0405717 0.0408344 0.0576015 0.0405717 0.0567055 0.0578574 0.0748121 0.0576015 0.0739866 0.0748121 0.0917669 0.0739866 0.0901457 0.0576015 0.0739866 0.0567055 0.0724622 0.0739866 0.0901457 0.0724622 0.0877071 -0.199858 -0.198491 -0.219368 -0.217134 -0.198491 -0.196485 -0.217134 -0.214035 -0.219368 -0.217134 -0.237295 -0.233864 -0.217134 -0.214035 -0.233864 -0.229361 -0.196485 -0.193538 -0.214035 -0.2098 -0.193538 -0.189388 -0.2098 -0.204168 -0.214035 -0.2098 -0.229361 -0.223537 -0.2098 -0.204168 -0.223537 -0.216182 -0.229361 -0.223537 -0.241276 -0.233683 -0.223537 -0.216182 -0.233683 -0.224494 -0.241276 -0.233683 -0.248577 -0.239216 -0.233683 -0.224494 -0.239216 -0.228269 -0.237295 -0.233864 -0.252318 -0.24742 -0.233864 -0.229361 -0.24742 -0.241276 -0.252318 -0.24742 -0.262907 -0.256428 -0.24742 -0.241276 -0.256428 -0.248577 -0.100287 -0.0888832 -0.0938554 -0.0802872 -0.0888832 -0.0774989 -0.0802872 -0.067207 -0.0938554 -0.0802872 -0.0843642 -0.0699681 -0.0802872 -0.067207 -0.0699681 -0.0563083 -0.121751 -0.111389 -0.121523 -0.107716 -0.111389 -0.100287 -0.107716 -0.0938554 -0.121523 -0.107716 -0.115125 -0.099469 -0.107716 -0.0938554 -0.099469 -0.0843642 -0.0900614 -0.0884225 -0.111746 -0.105886 -0.0884225 -0.0855929 -0.105886 -0.0988353 -0.111746 -0.105886 -0.121751 -0.111389 -0.105886 -0.0988353 -0.111389 -0.100287 -0.0855929 -0.0818525 -0.0988353 -0.0910007 -0.0818525 -0.0774726 -0.0910007 -0.0827237 -0.0988353 -0.0910007 -0.100287 -0.0888832 -0.0910007 -0.0827237 -0.0888832 -0.0774989 0.0395172 0.113667 0.00498441 0.0586358 0.113667 0.168706 0.0586358 0.105437 0.00498441 0.0586358 -0.0152191 0.0223234 0.0586358 0.105437 0.0223234 0.0623904 -0.0152191 0.0223234 -0.0270235 -0.00201998 0.0223234 0.0623904 -0.00201998 0.0323464 -0.0270235 -0.00201998 -0.0335075 -0.0184196 -0.00201998 0.0323464 -0.0184196 0.0107737 0 -0.0175246 0 -0.0183021 -0.0175246 -0.0152191 -0.0183021 -0.0270235 0 -0.0183021 0 -0.0179729 -0.0183021 -0.0270235 -0.0179729 -0.0335075 0 -0.00973197 0 -0.0151338 -0.00973197 0.0395172 -0.0151338 0.00498441 0 -0.0151338 0 -0.0175246 -0.0151338 0.00498441 -0.0175246 -0.0152191 -0.00741548 0.00373017 -0.00041135 0.0121629 0.00373017 0.0120456 0.0121629 0.0218901 -0.00041135 0.0121629 0.0110358 0.0241375 0.0121629 0.0218901 0.0241375 0.0344832 0.0110358 0.0241375 0.0260755 0.0389776 0.0241375 0.0344832 0.0389776 0.0492052 0.0260755 0.0389776 0.0437676 0.0558919 0.0389776 0.0492052 0.0558919 0.0653867 -0.0184758 -0.00447139 -0.00183922 0.0110534 -0.00447139 0.0110358 0.0110534 0.0260755 -0.00183922 0.0110534 0.0180803 0.0296823 0.0110534 0.0260755 0.0296823 0.0437676 -0.0367868 -0.0217444 -0.0306024 -0.0157684 -0.0217444 -0.00741548 -0.0157684 -0.00041135 -0.0306024 -0.0157684 -0.0184758 -0.00447139 -0.0157684 -0.00041135 -0.00447139 0.0110358 0.481455 0.682639 0.502727 0.702497 0.682639 1 0.702497 1 0.502727 0.702497 0.51724 0.716145 0.702497 1 0.716145 1 0.236665 0.337405 0.257898 0.358576 0.337405 0.481455 0.358576 0.502727 0.257898 0.358576 0.274126 0.373625 0.358576 0.502727 0.373625 0.51724 0.168706 0.263045 0.208053 0.307099 0.263045 0.403404 0.307099 0.450088 0.208053 0.307099 0.236665 0.337405 0.307099 0.450088 0.337405 0.481455 0.403404 0.611401 0.450088 0.653693 0.611401 1 0.653693 1 0.450088 0.653693 0.481455 0.682639 0.653693 1 0.682639 1 -0.0123466 -0.0244453 -0.0117622 -0.023433 -0.0244453 -0.038192 -0.023433 -0.036787 -0.0117622 -0.023433 -0.0108402 -0.0217832 -0.023433 -0.036787 -0.0217832 -0.0344039 -0.0108402 -0.0217832 -0.00960089 -0.0195715 -0.0217832 -0.0344039 -0.0195715 -0.0312157 -0.00960089 -0.0195715 -0.00809745 -0.016878 -0.0195715 -0.0312157 -0.016878 -0.027321 0 -0.00290351 0 -0.00252227 -0.00290351 -0.0108402 -0.00252227 -0.00960089 0 -0.00252227 0 -0.0020646 -0.00252227 -0.00960089 -0.0020646 -0.00809745 0 -0.0033843 0 -0.00319345 -0.0033843 -0.0123466 -0.00319345 -0.0117622 0 -0.00319345 0 -0.00290351 -0.00319345 -0.0117622 -0.00290351 -0.0108402 -0.177915 -0.182475 -0.158931 -0.16212 -0.182475 -0.187373 -0.16212 -0.166592 -0.158931 -0.16212 -0.139946 -0.143255 -0.16212 -0.166592 -0.143255 -0.147022 -0.221369 -0.22548 -0.199469 -0.203921 -0.22548 -0.229379 -0.203921 -0.208735 -0.199469 -0.203921 -0.177915 -0.182475 -0.203921 -0.208735 -0.182475 -0.187373 -0.229379 -0.232316 -0.208735 -0.213484 -0.232316 -0.233033 -0.213484 -0.21721 -0.208735 -0.213484 -0.187373 -0.192822 -0.213484 -0.21721 -0.192822 -0.198253 -0.187373 -0.192822 -0.166592 -0.171943 -0.192822 -0.198253 -0.171943 -0.17798 -0.166592 -0.171943 -0.147022 -0.151851 -0.171943 -0.17798 -0.151851 -0.157738 -0.262508 -0.24046 -0.248453 -0.223905 -0.24046 -0.212021 -0.223905 -0.194244 -0.248453 -