# vtk DataFile Version 3.0
#This file was generated by the deal.II library on 2021/5/4 at 12:53:33
ASCII
DATASET UNSTRUCTURED_GRID

POINTS 38144 double
1.64645 13.4142 0
1.23483 13.4142 0
1.64645 13.0026 0
1.23483 13.0026 0
1.23483 13.4142 0
0.823223 13.4142 0
1.23483 13.0026 0
0.823223 13.0026 0
1.64645 13.0026 0
1.23483 13.0026 0
1.64645 12.591 0
1.23483 12.591 0
1.23483 13.0026 0
0.823223 13.0026 0
1.23483 12.591 0
0.823223 12.591 0
0.823223 13.4142 0
0.411612 13.4142 0
0.823223 13.0026 0
0.411612 13.0026 0
0.411612 13.4142 0
0 13.4142 0
0.411612 13.0026 0
0 13.0026 0
0.823223 13.0026 0
0.411612 13.0026 0
0.823223 12.591 0
0.411612 12.591 0
0.411612 13.0026 0
0 13.0026 0
0.411612 12.591 0
0 12.591 0
1.64645 12.591 0
1.23483 12.591 0
1.64645 12.1794 0
1.23483 12.1794 0
1.23483 12.591 0
0.823223 12.591 0
1.23483 12.1794 0
0.823223 12.1794 0
1.64645 12.1794 0
1.23483 12.1794 0
1.64645 11.7678 0
1.23483 11.7678 0
1.23483 12.1794 0
0.823223 12.1794 0
1.23483 11.7678 0
0.823223 11.7678 0
0.823223 12.591 0
0.411612 12.591 0
0.823223 12.1794 0
0.411612 12.1794 0
0.411612 12.591 0
0 12.591 0
0.411612 12.1794 0
0 12.1794 0
0.823223 12.1794 0
0.411612 12.1794 0
0.823223 11.7678 0
0.411612 11.7678 0
0.411612 12.1794 0
0 12.1794 0
0.411612 11.7678 0
0 11.7678 0
1.64645 15.0607 0
1.23483 15.0607 0
1.64645 14.649 0
1.23483 14.649 0
1.23483 15.0607 0
0.823223 15.0607 0
1.23483 14.649 0
0.823223 14.649 0
1.64645 14.649 0
1.23483 14.649 0
1.64645 14.2374 0
1.23483 14.2374 0
1.23483 14.649 0
0.823223 14.649 0
1.23483 14.2374 0
0.823223 14.2374 0
0.823223 15.0607 0
0.411612 15.0607 0
0.823223 14.649 0
0.411612 14.649 0
0.411612 15.0607 0
0 15.0607 0
0.411612 14.649 0
0 14.649 0
0.823223 14.649 0
0.411612 14.649 0
0.823223 14.2374 0
0.411612 14.2374 0
0.411612 14.649 0
0 14.649 0
0.411612 14.2374 0
0 14.2374 0
1.64645 14.2374 0
1.23483 14.2374 0
1.64645 13.8258 0
1.23483 13.8258 0
1.23483 14.2374 0
0.823223 14.2374 0
1.23483 13.8258 0
0.823223 13.8258 0
1.64645 13.8258 0
1.23483 13.8258 0
1.64645 13.4142 0
1.23483 13.4142 0
1.23483 13.8258 0
0.823223 13.8258 0
1.23483 13.4142 0
0.823223 13.4142 0
0.823223 14.2374 0
0.411612 14.2374 0
0.823223 13.8258 0
0.411612 13.8258 0
0.411612 14.2374 0
0 14.2374 0
0.411612 13.8258 0
0 13.8258 0
0.823223 13.8258 0
0.411612 13.8258 0
0.823223 13.4142 0
0.411612 13.4142 0
0.411612 13.8258 0
0 13.8258 0
0.411612 13.4142 0
0 13.4142 0
1.64645 16.7071 0
1.23483 16.7071 0
1.64645 16.2955 0
1.23483 16.2955 0
1.23483 16.7071 0
0.823223 16.7071 0
1.23483 16.2955 0
0.823223 16.2955 0
1.64645 16.2955 0
1.23483 16.2955 0
1.64645 15.8839 0
1.23483 15.8839 0
1.23483 16.2955 0
0.823223 16.2955 0
1.23483 15.8839 0
0.823223 15.8839 0
0.823223 16.7071 0
0.411612 16.7071 0
0.823223 16.2955 0
0.411612 16.2955 0
0.411612 16.7071 0
0 16.7071 0
0.411612 16.2955 0
0 16.2955 0
0.823223 16.2955 0
0.411612 16.2955 0
0.823223 15.8839 0
0.411612 15.8839 0
0.411612 16.2955 0
0 16.2955 0
0.411612 15.8839 0
0 15.8839 0
1.64645 15.8839 0
1.23483 15.8839 0
1.64645 15.4723 0
1.23483 15.4723 0
1.23483 15.8839 0
0.823223 15.8839 0
1.23483 15.4723 0
0.823223 15.4723 0
1.64645 15.4723 0
1.23483 15.4723 0
1.64645 15.0607 0
1.23483 15.0607 0
1.23483 15.4723 0
0.823223 15.4723 0
1.23483 15.0607 0
0.823223 15.0607 0
0.823223 15.8839 0
0.411612 15.8839 0
0.823223 15.4723 0
0.411612 15.4723 0
0.411612 15.8839 0
0 15.8839 0
0.411612 15.4723 0
0 15.4723 0
0.823223 15.4723 0
0.411612 15.4723 0
0.823223 15.0607 0
0.411612 15.0607 0
0.411612 15.4723 0
0 15.4723 0
0.411612 15.0607 0
0 15.0607 0
1.64645 18.3536 0
1.23483 18.3536 0
1.64645 17.9419 0
1.23483 17.9419 0
1.23483 18.3536 0
0.823223 18.3536 0
1.23483 17.9419 0
0.823223 17.9419 0
1.64645 17.9419 0
1.23483 17.9419 0
1.64645 17.5303 0
1.23483 17.5303 0
1.23483 17.9419 0
0.823223 17.9419 0
1.23483 17.5303 0
0.823223 17.5303 0
0.823223 18.3536 0
0.411612 18.3536 0
0.823223 17.9419 0
0.411612 17.9419 0
0.411612 18.3536 0
0 18.3536 0
0.411612 17.9419 0
0 17.9419 0
0.823223 17.9419 0
0.411612 17.9419 0
0.823223 17.5303 0
0.411612 17.5303 0
0.411612 17.9419 0
0 17.9419 0
0.411612 17.5303 0
0 17.5303 0
1.64645 17.5303 0
1.23483 17.5303 0
1.64645 17.1187 0
1.23483 17.1187 0
1.23483 17.5303 0
0.823223 17.5303 0
1.23483 17.1187 0
0.823223 17.1187 0
1.64645 17.1187 0
1.23483 17.1187 0
1.64645 16.7071 0
1.23483 16.7071 0
1.23483 17.1187 0
0.823223 17.1187 0
1.23483 16.7071 0
0.823223 16.7071 0
0.823223 17.5303 0
0.411612 17.5303 0
0.823223 17.1187 0
0.411612 17.1187 0
0.411612 17.5303 0
0 17.5303 0
0.411612 17.1187 0
0 17.1187 0
0.823223 17.1187 0
0.411612 17.1187 0
0.823223 16.7071 0
0.411612 16.7071 0
0.411612 17.1187 0
0 17.1187 0
0.411612 16.7071 0
0 16.7071 0
1.64645 20 0
1.23483 20 0
1.64645 19.5884 0
1.23483 19.5884 0
1.23483 20 0
0.823223 20 0
1.23483 19.5884 0
0.823223 19.5884 0
1.64645 19.5884 0
1.23483 19.5884 0
1.64645 19.1768 0
1.23483 19.1768 0
1.23483 19.5884 0
0.823223 19.5884 0
1.23483 19.1768 0
0.823223 19.1768 0
0.823223 20 0
0.411612 20 0
0.823223 19.5884 0
0.411612 19.5884 0
0.411612 20 0
0 20 0
0.411612 19.5884 0
0 19.5884 0
0.823223 19.5884 0
0.411612 19.5884 0
0.823223 19.1768 0
0.411612 19.1768 0
0.411612 19.5884 0
0 19.5884 0
0.411612 19.1768 0
0 19.1768 0
1.64645 19.1768 0
1.23483 19.1768 0
1.64645 18.7652 0
1.23483 18.7652 0
1.23483 19.1768 0
0.823223 19.1768 0
1.23483 18.7652 0
0.823223 18.7652 0
1.64645 18.7652 0
1.23483 18.7652 0
1.64645 18.3536 0
1.23483 18.3536 0
1.23483 18.7652 0
0.823223 18.7652 0
1.23483 18.3536 0
0.823223 18.3536 0
0.823223 19.1768 0
0.411612 19.1768 0
0.823223 18.7652 0
0.411612 18.7652 0
0.411612 19.1768 0
0 19.1768 0
0.411612 18.7652 0
0 18.7652 0
0.823223 18.7652 0
0.411612 18.7652 0
0.823223 18.3536 0
0.411612 18.3536 0
0.411612 18.7652 0
0 18.7652 0
0.411612 18.3536 0
0 18.3536 0
3.29289 13.4142 0
2.88128 13.4142 0
3.29289 13.0026 0
2.88128 13.0026 0
2.88128 13.4142 0
2.46967 13.4142 0
2.88128 13.0026 0
2.46967 13.0026 0
3.29289 13.0026 0
2.88128 13.0026 0
3.29289 12.591 0
2.88128 12.591 0
2.88128 13.0026 0
2.46967 13.0026 0
2.88128 12.591 0
2.46967 12.591 0
2.46967 13.4142 0
2.05806 13.4142 0
2.46967 13.0026 0
2.05806 13.0026 0
2.05806 13.4142 0
1.64645 13.4142 0
2.05806 13.0026 0
1.64645 13.0026 0
2.46967 13.0026 0
2.05806 13.0026 0
2.46967 12.591 0
2.05806 12.591 0
2.05806 13.0026 0
1.64645 13.0026 0
2.05806 12.591 0
1.64645 12.591 0
3.29289 12.591 0
2.88128 12.591 0
3.29289 12.1794 0
2.88128 12.1794 0
2.88128 12.591 0
2.46967 12.591 0
2.88128 12.1794 0
2.46967 12.1794 0
3.29289 12.1794 0
2.88128 12.1794 0
3.29289 11.7678 0
2.88128 11.7678 0
2.88128 12.1794 0
2.46967 12.1794 0
2.88128 11.7678 0
2.46967 11.7678 0
2.46967 12.591 0
2.05806 12.591 0
2.46967 12.1794 0
2.05806 12.1794 0
2.05806 12.591 0
1.64645 12.591 0
2.05806 12.1794 0
1.64645 12.1794 0
2.46967 12.1794 0
2.05806 12.1794 0
2.46967 11.7678 0
2.05806 11.7678 0
2.05806 12.1794 0
1.64645 12.1794 0
2.05806 11.7678 0
1.64645 11.7678 0
3.29289 15.0607 0
2.88128 15.0607 0
3.29289 14.649 0
2.88128 14.649 0
2.88128 15.0607 0
2.46967 15.0607 0
2.88128 14.649 0
2.46967 14.649 0
3.29289 14.649 0
2.88128 14.649 0
3.29289 14.2374 0
2.88128 14.2374 0
2.88128 14.649 0
2.46967 14.649 0
2.88128 14.2374 0
2.46967 14.2374 0
2.46967 15.0607 0
2.05806 15.0607 0
2.46967 14.649 0
2.05806 14.649 0
2.05806 15.0607 0
1.64645 15.0607 0
2.05806 14.649 0
1.64645 14.649 0
2.46967 14.649 0
2.05806 14.649 0
2.46967 14.2374 0
2.05806 14.2374 0
2.05806 14.649 0
1.64645 14.649 0
2.05806 14.2374 0
1.64645 14.2374 0
3.29289 14.2374 0
2.88128 14.2374 0
3.29289 13.8258 0
2.88128 13.8258 0
2.88128 14.2374 0
2.46967 14.2374 0
2.88128 13.8258 0
2.46967 13.8258 0
3.29289 13.8258 0
2.88128 13.8258 0
3.29289 13.4142 0
2.88128 13.4142 0
2.88128 13.8258 0
2.46967 13.8258 0
2.88128 13.4142 0
2.46967 13.4142 0
2.46967 14.2374 0
2.05806 14.2374 0
2.46967 13.8258 0
2.05806 13.8258 0
2.05806 14.2374 0
1.64645 14.2374 0
2.05806 13.8258 0
1.64645 13.8258 0
2.46967 13.8258 0
2.05806 13.8258 0
2.46967 13.4142 0
2.05806 13.4142 0
2.05806 13.8258 0
1.64645 13.8258 0
2.05806 13.4142 0
1.64645 13.4142 0
3.29289 16.7071 0
2.88128 16.7071 0
3.29289 16.2955 0
2.88128 16.2955 0
2.88128 16.7071 0
2.46967 16.7071 0
2.88128 16.2955 0
2.46967 16.2955 0
3.29289 16.2955 0
2.88128 16.2955 0
3.29289 15.8839 0
2.88128 15.8839 0
2.88128 16.2955 0
2.46967 16.2955 0
2.88128 15.8839 0
2.46967 15.8839 0
2.46967 16.7071 0
2.05806 16.7071 0
2.46967 16.2955 0
2.05806 16.2955 0
2.05806 16.7071 0
1.64645 16.7071 0
2.05806 16.2955 0
1.64645 16.2955 0
2.46967 16.2955 0
2.05806 16.2955 0
2.46967 15.8839 0
2.05806 15.8839 0
2.05806 16.2955 0
1.64645 16.2955 0
2.05806 15.8839 0
1.64645 15.8839 0
3.29289 15.8839 0
2.88128 15.8839 0
3.29289 15.4723 0
2.88128 15.4723 0
2.88128 15.8839 0
2.46967 15.8839 0
2.88128 15.4723 0
2.46967 15.4723 0
3.29289 15.4723 0
2.88128 15.4723 0
3.29289 15.0607 0
2.88128 15.0607 0
2.88128 15.4723 0
2.46967 15.4723 0
2.88128 15.0607 0
2.46967 15.0607 0
2.46967 15.8839 0
2.05806 15.8839 0
2.46967 15.4723 0
2.05806 15.4723 0
2.05806 15.8839 0
1.64645 15.8839 0
2.05806 15.4723 0
1.64645 15.4723 0
2.46967 15.4723 0
2.05806 15.4723 0
2.46967 15.0607 0
2.05806 15.0607 0
2.05806 15.4723 0
1.64645 15.4723 0
2.05806 15.0607 0
1.64645 15.0607 0
3.29289 18.3536 0
2.88128 18.3536 0
3.29289 17.9419 0
2.88128 17.9419 0
2.88128 18.3536 0
2.46967 18.3536 0
2.88128 17.9419 0
2.46967 17.9419 0
3.29289 17.9419 0
2.88128 17.9419 0
3.29289 17.5303 0
2.88128 17.5303 0
2.88128 17.9419 0
2.46967 17.9419 0
2.88128 17.5303 0
2.46967 17.5303 0
2.46967 18.3536 0
2.05806 18.3536 0
2.46967 17.9419 0
2.05806 17.9419 0
2.05806 18.3536 0
1.64645 18.3536 0
2.05806 17.9419 0
1.64645 17.9419 0
2.46967 17.9419 0
2.05806 17.9419 0
2.46967 17.5303 0
2.05806 17.5303 0
2.05806 17.9419 0
1.64645 17.9419 0
2.05806 17.5303 0
1.64645 17.5303 0
3.29289 17.5303 0
2.88128 17.5303 0
3.29289 17.1187 0
2.88128 17.1187 0
2.88128 17.5303 0
2.46967 17.5303 0
2.88128 17.1187 0
2.46967 17.1187 0
3.29289 17.1187 0
2.88128 17.1187 0
3.29289 16.7071 0
2.88128 16.7071 0
2.88128 17.1187 0
[...]
POINT_DATA 38144
VECTORS velocity double
1.25584 0.00467955 0
1.23039 0.00444367 0
1.25552 0.00440851 0
1.23021 0.00420969 0
1.23039 0.00444367 0
1.29837 0.00413279 0
1.23021 0.00420969 0
1.29824 0.00387566 0
1.25552 0.00440851 0
1.23021 0.00420969 0
1.25524 0.00406127 0
1.22998 0.00376559 0
1.23021 0.00420969 0
1.29824 0.00387566 0
1.22998 0.00376559 0
1.2983 0.00373415 0
1.29837 0.00413279 0
1.11424 0.00499413 0
1.29824 0.00387566 0
1.11423 0.00478093 0
1.11424 0.00499413 0
1 0 0
1.11423 0.00478093 0
1 0 0
1.29824 0.00387566 0
1.11423 0.00478093 0
1.2983 0.00373415 0
1.11413 0.0045248 0
1.11423 0.00478093 0
1 0 0
1.11413 0.0045248 0
1 0 0
1.25524 0.00406127 0
1.22998 0.00376559 0
1.25482 0.00339027 0
1.23006 0.00348673 0
1.22998 0.00376559 0
1.2983 0.00373415 0
1.23006 0.00348673 0
1.29802 0.00266883 0
1.25482 0.00339027 0
1.23006 0.00348673 0
1.25521 0.00309996 0
1.22848 0.0023481 0
1.23006 0.00348673 0
1.29802 0.00266883 0
1.22848 0.0023481 0
1.29997 0.00268028 0
1.2983 0.00373415 0
1.11413 0.0045248 0
1.29802 0.00266883 0
1.11474 0.00435395 0
1.11413 0.0045248 0
1 0 0
1.11474 0.00435395 0
1 0 0
1.29802 0.00266883 0
1.11474 0.00435395 0
1.29997 0.00268028 0
1.11437 0.00505862 0
1.11474 0.00435395 0
1 0 0
1.11437 0.00505862 0
1 0 0
1.257 0.00471528 0
1.23122 0.00452571 0
1.25674 0.00483596 0
1.23103 0.00462709 0
1.23122 0.00452571 0
1.29887 0.00421061 0
1.23103 0.00462709 0
1.29875 0.00429646 0
1.25674 0.00483596 0
1.23103 0.00462709 0
1.25645 0.00487671 0
1.23082 0.00465244 0
1.23103 0.00462709 0
1.29875 0.00429646 0
1.23082 0.00465244 0
1.29862 0.00431414 0
1.29887 0.00421061 0
1.11446 0.00509906 0
1.29875 0.00429646 0
1.1144 0.00519765 0
1.11446 0.00509906 0
1 0 0
1.1144 0.00519765 0
1 0 0
1.29875 0.00429646 0
1.1144 0.00519765 0
1.29862 0.00431414 0
1.11435 0.00521386 0
1.1144 0.00519765 0
1 0 0
1.11435 0.00521386 0
1 0 0
1.25645 0.00487671 0
1.23082 0.00465244 0
1.25615 0.00482703 0
1.23061 0.00459529 0
1.23082 0.00465244 0
1.29862 0.00431414 0
1.23061 0.00459529 0
1.29849 0.00425403 0
1.25615 0.00482703 0
1.23061 0.00459529 0
1.25584 0.00467955 0
1.23039 0.00444367 0
1.23061 0.00459529 0
1.29849 0.00425403 0
1.23039 0.00444367 0
1.29837 0.00413279 0
1.29862 0.00431414 0
1.11435 0.00521386 0
1.29849 0.00425403 0
1.1143 0.00514672 0
1.11435 0.00521386 0
1 0 0
1.1143 0.00514672 0
1 0 0
1.29849 0.00425403 0
1.1143 0.00514672 0
1.29837 0.00413279 0
1.11424 0.00499413 0
1.1143 0.00514672 0
1 0 0
1.11424 0.00499413 0
1 0 0
1.2578 0.0036196 0
1.2318 0.00351527 0
1.25764 0.00396772 0
1.23168 0.00384312 0
1.2318 0.00351527 0
1.29925 0.00329586 0
1.23168 0.00384312 0
1.29917 0.00359686 0
1.25764 0.00396772 0
1.23168 0.00384312 0
1.25746 0.004272 0
1.23155 0.00412589 0
1.23168 0.00384312 0
1.29917 0.00359686 0
1.23155 0.00412589 0
1.29908 0.00385412 0
1.29925 0.00329586 0
1.11462 0.00401075 0
1.29917 0.00359686 0
1.11458 0.00437208 0
1.11462 0.00401075 0
1 0 0
1.11458 0.00437208 0
1 0 0
1.29917 0.00359686 0
1.11458 0.00437208 0
1.29908 0.00385412 0
1.11455 0.00467909 0
1.11458 0.00437208 0
1 0 0
1.11455 0.00467909 0
1 0 0
1.25746 0.004272 0
1.23155 0.00412589 0
1.25724 0.00452416 0
1.23139 0.00435603 0
1.23155 0.00412589 0
1.29908 0.00385412 0
1.23139 0.00435603 0
1.29898 0.00406092 0
1.25724 0.00452416 0
1.23139 0.00435603 0
1.257 0.00471528 0
1.23122 0.00452571 0
1.23139 0.00435603 0
1.29898 0.00406092 0
1.23122 0.00452571 0
1.29887 0.00421061 0
1.29908 0.00385412 0
1.11455 0.00467909 0
1.29898 0.00406092 0
1.1145 0.00492396 0
1.11455 0.00467909 0
1 0 0
1.1145 0.00492396 0
1 0 0
1.29898 0.00406092 0
1.1145 0.00492396 0
1.29887 0.00421061 0
1.11446 0.00509906 0
1.1145 0.00492396 0
1 0 0
1.11446 0.00509906 0
1 0 0
1.2582 0.00192708 0
1.2321 0.0018861 0
1.25813 0.00238335 0
1.23205 0.00232924 0
1.2321 0.0018861 0
1.29944 0.00177759 0
1.23205 0.00232924 0
1.29941 0.00219306 0
1.25813 0.00238335 0
1.23205 0.00232924 0
1.25804 0.0028211 0
1.23198 0.00275212 0
1.23205 0.00232924 0
1.29941 0.00219306 0
1.23198 0.00275212 0
1.29936 0.00258811 0
1.29944 0.00177759 0
1.1147 0.00217042 0
1.29941 0.00219306 0
1.11468 0.00267599 0
1.1147 0.00217042 0
1 0 0
1.11468 0.00267599 0
1 0 0
1.29941 0.00219306 0
1.11468 0.00267599 0
1.29936 0.00258811 0
1.11467 0.00315558 0
1.11468 0.00267599 0
1 0 0
1.11467 0.00315558 0
1 0 0
1.25804 0.0028211 0
1.23198 0.00275212 0
1.25793 0.00323515 0
1.2319 0.00314943 0
1.23198 0.00275212 0
1.29936 0.00258811 0
1.2319 0.00314943 0
1.29931 0.00295758 0
1.25793 0.00323515 0
1.2319 0.00314943 0
1.2578 0.0036196 0
1.2318 0.00351527 0
1.2319 0.00314943 0
1.29931 0.00295758 0
1.2318 0.00351527 0
1.29925 0.00329586 0
1.29936 0.00258811 0
1.11467 0.00315558 0
1.29931 0.00295758 0
1.11464 0.0036028 0
1.11467 0.00315558 0
1 0 0
1.11464 0.0036028 0
1 0 0
1.29931 0.00295758 0
1.11464 0.0036028 0
1.29925 0.00329586 0
1.11462 0.00401075 0
1.11464 0.0036028 0
1 0 0
1.11462 0.00401075 0
1 0 0
1.25832 0 0
1.23219 0 0
1.25831 0.000489855 0
1.23219 0.000480618 0
1.23219 0 0
1.2995 0 0
1.23219 0.000480618 0
1.2995 0.000453716 0
1.25831 0.000489855 0
1.23219 0.000480618 0
1.25829 0.000976561 0
1.23217 0.000957674 0
1.23219 0.000480618 0
1.2995 0.000453716 0
1.23217 0.000957674 0
1.29949 0.000903771 0
1.2995 0 0
1.11472 0 0
1.2995 0.000453716 0
1.11472 0.000554579 0
1.11472 0 0
1 0 0
1.11472 0.000554579 0
1 0 0
1.2995 0.000453716 0
1.11472 0.000554579 0
1.29949 0.000903771 0
1.11472 0.00110445 0
1.11472 0.000554579 0
1 0 0
1.11472 0.00110445 0
1 0 0
1.25829 0.000976561 0
1.23217 0.000957674 0
1.25825 0.00145683 0
1.23214 0.00142748 0
1.23217 0.000957674 0
1.29949 0.000903771 0
1.23214 0.00142748 0
1.29947 0.00134639 0
1.25825 0.00145683 0
1.23214 0.00142748 0
1.2582 0.00192708 0
1.2321 0.0018861 0
1.23214 0.00142748 0
1.29947 0.00134639 0
1.2321 0.0018861 0
1.29944 0.00177759 0
1.29949 0.000903771 0
1.11472 0.00110445 0
1.29947 0.00134639 0
1.11471 0.00164476 0
1.11472 0.00110445 0
1 0 0
1.11471 0.00164476 0
1 0 0
1.29947 0.00134639 0
1.11471 0.00164476 0
1.29944 0.00177759 0
1.1147 0.00217042 0
1.11471 0.00164476 0
1 0 0
1.1147 0.00217042 0
1 0 0
1.24831 0.0069391 0
1.24794 0.00616822 0
1.24744 0.00674 0
1.24723 0.0059373 0
1.24794 0.00616822 0
1.24945 0.00554469 0
1.24723 0.0059373 0
1.24889 0.00529231 0
1.24744 0.00674 0
1.24723 0.0059373 0
1.24654 0.0063677 0
1.2465 0.00555495 0
1.24723 0.0059373 0
1.24889 0.00529231 0
1.2465 0.00555495 0
1.24832 0.00491648 0
1.24945 0.00554469 0
1.24604 0.00505288 0
1.24889 0.00529231 0
1.24561 0.00479399 0
1.24604 0.00505288 0
1.25584 0.00467955 0
1.24561 0.00479399 0
1.25552 0.00440851 0
1.24889 0.00529231 0
1.24561 0.00479399 0
1.24832 0.00491648 0
1.24516 0.00439806 0
1.24561 0.00479399 0
1.25552 0.00440851 0
1.24516 0.00439806 0
1.25524 0.00406127 0
1.24654 0.0063677 0
1.2465 0.00555495 0
1.24564 0.00575883 0
1.2458 0.00498829 0
1.2465 0.00555495 0
1.24832 0.00491648 0
1.2458 0.00498829 0
1.24774 0.00434296 0
1.24564 0.00575883 0
1.2458 0.00498829 0
1.24483 0.00510249 0
1.24505 0.00437154 0
1.2458 0.00498829 0
1.24774 0.00434296 0
1.24505 0.00437154 0
1.24737 0.00381599 0
1.24832 0.00491648 0
1.24516 0.00439806 0
1.24774 0.00434296 0
1.24477 0.00391591 0
1.24516 0.00439806 0
1.25524 0.00406127 0
1.24477 0.00391591 0
1.25482 0.00339027 0
1.24774 0.00434296 0
1.24477 0.00391591 0
1.24737 0.00381599 0
1.24399 0.00328336 0
1.24477 0.00391591 0
1.25482 0.00339027 0
1.24399 0.00328336 0
1.25521 0.00309996 0
1.25114 0.00631239 0
1.25031 0.00580346 0
1.25055 0.00663365 0
1.2498 0.00605118 0
1.25031 0.00580346 0
1.2514 0.00536851 0
1.2498 0.00605118 0
1.25097 0.00556027 0
1.25055 0.00663365 0
1.2498 0.00605118 0
1.24988 0.0068609 0
1.24924 0.00620688 0
1.2498 0.00605118 0
1.25097 0.00556027 0
1.24924 0.00620688 0
1.25051 0.0056634 0
1.2514 0.00536851 0
1.24758 0.00500833 0
1.25097 0.00556027 0
1.24724 0.00515863 0
1.24758 0.00500833 0
1.257 0.00471528 0
1.24724 0.00515863 0
1.25674 0.00483596 0
1.25097 0.00556027 0
1.24724 0.00515863 0
1.25051 0.0056634 0
1.24687 0.00522433 0
1.24724 0.00515863 0
1.25674 0.00483596 0
1.24687 0.00522433 0
1.25645 0.00487671 0
1.24988 0.0068609 0
1.24924 0.00620688 0
1.24913 0.00697053 0
1.24861 0.00625186 0
1.24924 0.00620688 0
1.25051 0.0056634 0
1.24861 0.00625186 0
1.25 0.00566269 0
1.24913 0.00697053 0
1.24861 0.00625186 0
1.24831 0.0069391 0
1.24794 0.00616822 0
1.24861 0.00625186 0
1.25 0.00566269 0
1.24794 0.00616822 0
1.24945 0.00554469 0
1.25051 0.0056634 0
1.24687 0.00522433 0
1.25 0.00566269 0
1.24647 0.00519322 0
1.24687 0.00522433 0
1.25645 0.00487671 0
1.24647 0.00519322 0
1.25615 0.00482703 0
1.25 0.00566269 0
1.24647 0.00519322 0
1.24945 0.00554469 0
1.24604 0.00505288 0
1.24647 0.00519322 0
1.25615 0.00482703 0
1.24604 0.00505288 0
1.25584 0.00467955 0
1.25272 0.00446187 0
1.25171 0.00420947 0
1.25243 0.00497953 0
1.25145 0.0046719 0
1.25171 0.00420947 0
1.2526 0.00398236 0
1.25145 0.0046719 0
1.25237 0.00439842 0
1.25243 0.00497953 0
1.25145 0.0046719 0
1.25207 0.00546888 0
1.25113 0.00509944 0
1.25145 0.0046719 0
1.25237 0.00439842 0
1.25113 0.00509944 0
1.25209 0.00477514 0
1.2526 0.00398236 0
1.24859 0.00378627 0
1.25237 0.00439842 0
1.24839 0.00416452 0
1.24859 0.00378627 0
1.2578 0.0036196 0
1.24839 0.00416452 0
1.25764 0.00396772 0
1.25237 0.00439842 0
1.24839 0.00416452 0
1.25209 0.00477514 0
1.24816 0.00450058 0
1.24839 0.00416452 0
1.25764 0.00396772 0
1.24816 0.00450058 0
1.25746 0.004272 0
1.25207 0.00546888 0
1.25113 0.00509944 0
1.25164 0.00591812 0
1.25075 0.00548105 0
1.25113 0.00509944 0
1.25209 0.00477514 0
1.25075 0.00548105 0
1.25177 0.00510241 0
1.25164 0.00591812 0
1.25075 0.00548105 0
1.25114 0.00631239 0
1.25031 0.00580346 0
1.25075 0.00548105 0
1.25177 0.00510241 0
1.25031 0.00580346 0
1.2514 0.00536851 0
1.25209 0.00477514 0
1.24816 0.00450058 0
1.25177 0.00510241 0
1.24789 0.00478526 0
1.24816 0.00450058 0
1.25746 0.004272 0
1.24789 0.00478526 0
1.25724 0.00452416 0
1.25177 0.00510241 0
1.24789 0.00478526 0
1.2514 0.00536851 0
1.24758 0.00500833 0
1.24789 0.00478526 0
1.25724 0.00452416 0
1.24758 0.00500833 0
1.257 0.00471528 0
1.2534 0.00225735 0
1.25235 0.00216308 0
1.25329 0.00281865 0
1.25224 0.00269311 0
1.25235 0.00216308 0
1.25318 0.00207478 0
1.25224 0.00269311 0
1.25308 0.00257651 0
1.25329 0.00281865 0
1.25224 0.00269311 0
1.25314 0.00337563 0
1.2521 0.00321382 0
1.25224 0.00269311 0
1.25308 0.00257651 0
1.2521 0.00321382 0
1.25295 0.00306498 0
1.25318 0.00207478 0
1.24908 0.00199618 0
1.25308 0.00257651 0
1.24899 0.00247338 0
1.24908 0.00199618 0
1.2582 0.00192708 0
1.24899 0.00247338 0
1.25813 0.00238335 0
1.25308 0.00257651 0
1.24899 0.00247338 0
1.25295 0.00306498 0
1.24889 0.00293427 0
1.24899 0.00247338 0
1.25813 0.00238335 0
1.24889 0.00293427 0
1.25804 0.0028211 0
1.25314 0.00337563 0
1.2521 0.00321382 0
1.25295 0.00392498 0
1.25193 0.00372109 0
1.2521 0.00321382 0
1.25295 0.00306498 0
1.25193 0.00372109 0
1.2528 0.00353552 0
1.25295 0.00392498 0
1.25193 0.00372109 0
1.25272 0.00446187 0
1.25171 0.00420947 0
1.25193 0.00372109 0
1.2528 0.00353552 0
1.25171 0.00420947 0
1.2526 0.00398236 0
1.25295 0.00306498 0
1.24889 0.00293427 0
1.2528 0.00353552 0
1.24875 0.00337387 0
1.24889 0.00293427 0
1.25804 0.0028211 0
1.24875 0.00337387 0
1.25793 0.00323515 0
1.2528 0.00353552 0
1.24875 0.00337387 0
1.2526 0.00398236 0
1.24859 0.00378627 0
1.24875 0.00337387 0
1.25793 0.00323515 0
1.24859 0.00378627 0
1.2578 0.0036196 0
1.25358 0 0
1.25252 0 0
1.25357 0.000564753 0
1.25251 0.000543776 0
1.25252 0 0
1.25334 0 0
1.25251 0.000543776 0
1.25333 0.000523819 0
1.25357 0.000564753 0
1.25251 0.000543776 0
1.25354 0.00112945 0
1.25248 0.00108646 0
1.25251 0.000543776 0
1.25333 0.000523819 0
1.25248 0.00108646 0
1.2533 0.00104569 0
1.25334 0 0
1.24922 0 0
1.25333 0.000523819 0
1.24921 0.000505856 0
1.24922 0 0
1.25832 0 0
1.24921 0.000505856 0
1.25831 0.000489855 0
1.25333 0.000523819 0
1.24921 0.000505856 0
1.2533 0.00104569 0
1.24919 0.00100908 0
1.24921 0.000505856 0
1.25831 0.000489855 0
1.24919 0.00100908 0
1.25829 0.000976561 0
1.25354 0.00112945 0
1.25248 0.00108646 0
1.25348 0.00169386 0
1.25243 0.00162678 0
1.25248 0.00108646 0
1.2533 0.00104569 0
1.25243 0.00162678 0
1.25325 0.0015635 0
1.25348 0.00169386 0
1.25243 0.00162678 0
1.2534 0.00225735 0
1.25235 0.00216308 0
1.25243 0.00162678 0
1.25325 0.0015635 0
1.25235 0.00216308 0
1.25318 0.00207478 0
1.2533 0.00104569 0
1.24919 0.00100908 0
1.25325 0.0015635 0
1.24914 0.00150689 0
1.24919 0.00100908 0
1.25829 0.000976561 0
1.24914 0.00150689 0
1.25825 0.00145683 0
1.25325 0.0015635 0
1.24914 0.00150689 0
1.25318 0.00207478 0
1.24908 0.00199618 0
1.24914 0.00150689 0
1.25825 0.00145683 0
1.24908 0.00199618 0
1.2582 0.00192708 0
1.24855 0.0119226 0
1.24823 0.0103425 0
1.24672 0.012191 0
1.24669 0.0104104 0
1.24823 0.0103425 0
1.24812 0.00900196 0
1.24669 0.0104104 0
1.24684 0.00893917 0
1.24672 0.012191 0
1.24669 0.0104104 0
1.24467 0.0121126 0
1.24501 0.0101834 0
1.24669 0.0104104 0
1.24684 0.00893917 0
1.24501 0.0101834 0
1.24547 0.008629 0
1.24812 0.00900196 0
1.24805 0.00787593 0
1.24684 0.00893917 0
1.24698 0.00772962 0
1.24805 0.00787593 0
1.24831 0.0069391 0
1.24698 0.00772962 0
1.24744 0.00674 0
1.24684 0.00893917 0
1.24698 0.00772962 0
1.24547 0.008629 0
1.24587 0.00737575 0
1.24698 0.00772962 0
1.24744 0.00674 0
1.24587 0.00737575 0
1.24654 0.0063677 0
1.24467 0.0121126 0
1.24501 0.0101834 0
1.24247 0.0115206 0
1.24326 0.00953723 0
1.24501 0.0101834 0
1.24547 0.008629 0
1.24326 0.00953723 0
1.24408 0.00797581 0
1.24247 0.0115206 0
1.24326 0.00953723 0
1.24024 0.0105981 0
1.24153 0.00866934 0
1.24326 0.00953723 0
1.24408 0.00797581 0
1.24153 0.00866934 0
1.24273 0.00717833 0
1.24547 0.008629 0
1.24587 0.00737575 0
1.24408 0.00797581 0
1.24476 0.00674308 0
1.24587 0.00737575 0
1.24654 0.0063677 0
1.24476 0.00674308 0
1.24564 0.00575883 0
1.24408 0.00797581 0
1.24476 0.00674308 0
1.24273 0.00717833 0
1.24368 0.00601535 0
1.24476 0.00674308 0
1.24564 0.00575883 0
1.24368 0.00601535 0
1.24483 0.00510249 0
1.25337 0.00898813 0
1.25256 0.0082451 0
1.25252 0.00985872 0
1.25175 0.00893152 0
1.25256 0.0082451 0
1.25194 0.00754103 0
1.25175 0.00893152 0
1.2512 0.0080773 0
1.25252 0.00985872 0
1.25175 0.00893152 0
1.25145 0.0106762 0
1.25077 0.00954165 0
1.25175 0.00893152 0
1.2512 0.0080773 0
1.25077 0.00954165 0
1.25031 0.00852508 0
1.25194 0.00754103 0
1.25136 0.00689335 0
1.2512 0.0080773 0
1.25069 0.00730939 0
1.25136 0.00689335 0
1.25114 0.00631239 0
1.25069 0.00730939 0
1.25055 0.00663365 0
1.2512 0.0080773 0
1.25069 0.00730939 0
1.25031 0.00852508 0
1.24991 0.00763195 0
1.25069 0.00730939 0
1.25055 0.00663365 0
1.24991 0.00763195 0
1.24988 0.0068609 0
1.25145 0.0106762 0
1.25077 0.00954165 0
1.25013 0.0113872 0
1.24959 0.0100301 0
1.25077 0.00954165 0
1.25031 0.00852508 0
1.24959 0.0100301 0
1.24929 0.00884721 0
1.25013 0.0113872 0
1.24959 0.0100301 0
1.24855 0.0119226 0
1.24823 0.0103425 0
1.24959 0.0100301 0
1.24929 0.00884721 0
1.24823 0.0103425 0
1.24812 0.00900196 0
1.25031 0.00852508 0
1.24991 0.00763195 0
1.24929 0.00884721 0
1.24903 0.00783129 0
1.24991 0.00763195 0
1.24988 0.0068609 0
1.24903 0.00783129 0
1.24913 0.00697053 0
1.24929 0.00884721 0
1.24903 0.00783129 0
1.24812 0.00900196 0
1.24805 0.00787593 0
1.24903 0.00783129 0
1.24913 0.00697053 0
1.24805 0.00787593 0
1.24831 0.0069391 0
1.25522 0.00555074 0
1.25445 0.00529068 0
1.25493 0.00637175 0
1.25413 0.00602569 0
1.25445 0.00529068 0
1.25378 0.00501303 0
1.25413 0.00602569 0
1.25346 0.00566766 0
1.25493 0.00637175 0
1.25413 0.00602569 0
1.25455 0.00722475 0
1.25373 0.00677127 0
1.25413 0.00602569 0
1.25346 0.00566766 0
1.25373 0.00677127 0
1.25306 0.00631605 0
1.25378 0.00501303 0
1.25309 0.00473278 0
1.25346 0.00566766 0
1.25278 0.00531462 0
1.25309 0.00473278 0
1.25272 0.00446187 0
1.25278 0.00531462 0
1.25243 0.00497953 0
1.25346 0.00566766 0
1.25278 0.00531462 0
1.25306 0.00631605 0
1.25239 0.00587748 0
1.25278 0.00531462 0
1.25243 0.00497953 0
1.25239 0.00587748 0
1.25207 0.00546888 0
1.25455 0.00722475 0
1.25373 0.00677127 0
1.25404 0.00810187 0
1.25321 0.00751672 0
1.25373 0.00677127 0
1.25306 0.00631605 0
1.25321 0.00751672 0
1.25256 0.00694621 0
1.25404 0.00810187 0
1.25321 0.00751672 0
1.25337 0.00898813 0
1.25256 0.0082451 0
1.25321 0.00751672 0
1.25256 0.00694621 0
1.25256 0.0082451 0
1.25194 0.00754103 0
1.25306 0.00631605 0
1.25239 0.00587748 0
1.25256 0.00694621 0
1.25192 0.00640914 0
1.25239 0.00587748 0
1.25207 0.00546888 0
1.25192 0.00640914 0
1.25164 0.00591812 0
1.25256 0.00694621 0
1.25192 0.00640914 0
1.25194 0.00754103 0
1.25136 0.00689335 0
1.25192 0.00640914 0
1.25164 0.00591812 0
1.25136 0.00689335 0
1.25114 0.00631239 0
1.25576 0.00259984 0
1.25508 0.002531 0
1.25569 0.00329254 0
1.25499 0.00319307 0
1.25508 0.002531 0
1.25447 0.00244669 0
1.25499 0.00319307 0
1.25436 0.00307542 0
1.25569 0.00329254 0
1.25499 0.00319307 0
1.25558 0.00401276 0
1.25486 0.00387299 0
1.25499 0.00319307 0
1.25436 0.00307542 0
1.25486 0.00387299 0
1.25422 0.00371339 0
1.25447 0.00244669 0
1.25379 0.00235354 0
1.25436 0.00307542 0
1.25368 0.00294814 0
1.25379 0.00235354 0
1.2534 0.00225735 0
1.25368 0.00294814 0
1.25329 0.00281865 0
1.25436 0.00307542 0
1.25368 0.00294814 0
1.25422 0.00371339 0
1.25353 0.00354461 0
1.25368 0.00294814 0
1.25329 0.00281865 0
1.25353 0.00354461 0
1.25314 0.00337563 0
1.25558 0.00401276 0
1.25486 0.00387299 0
1.25543 0.00476458 0
1.25468 0.00457225 0
1.25486 0.00387299 0
1.25422 0.00371339 0
1.25468 0.00457225 0
1.25403 0.00436004 0
1.25543 0.00476458 0
1.25468 0.00457225 0
1.25522 0.00555074 0
1.25445 0.00529068 0
1.25468 0.00457225 0
1.25403 0.00436004 0
1.25445 0.00529068 0
1.25378 0.00501303 0
1.25422 0.00371339 0
1.25353 0.00354461 0
1.25403 0.00436004 0
1.25334 0.00414077 0
1.25353 0.00354461 0
1.25314 0.00337563 0
1.25334 0.00414077 0
1.25295 0.00392498 0
1.25403 0.00436004 0
1.25334 0.00414077 0
1.25378 0.00501303 0
1.25309 0.00473278 0
1.25334 0.00414077 0
1.25295 0.00392498 0
1.25309 0.00473278 0
1.25272 0.00446187 0
1.25586 0 0
1.25522 0 0
1.25585 0.00063552 0
1.25521 0.00062258 0
1.25522 0 0
1.25463 0 0
1.25521 0.00062258 0
1.25462 0.000605466 0
1.25585 0.00063552 0
1.25521 0.00062258 0
1.25584 0.00127685 0
1.25519 0.0012493 0
1.25521 0.00062258 0
1.25462 0.000605466 0
1.25519 0.0012493 0
1.2546 0.00121351 0
1.25463 0 0
1.25397 0 0
1.25462 0.000605466 0
1.25396 0.000585724 0
1.25397 0 0
1.25358 0 0
1.25396 0.000585724 0
1.25357 0.000564753 0
1.25462 0.000605466 0
1.25396 0.000585724 0
1.2546 0.00121351 0
1.25393 0.00117262 0
1.25396 0.000585724 0
1.25357 0.000564753 0
1.25393 0.00117262 0
1.25354 0.00112945 0
1.25584 0.00127685 0
1.25519 0.0012493 0
1.25581 0.00192974 0
1.25515 0.00188418 0
1.25519 0.0012493 0
1.2546 0.00121351 0
1.25515 0.00188418 0
1.25455 0.00182656 0
1.25581 0.00192974 0
1.25515 0.00188418 0
1.25576 0.00259984 0
1.25508 0.002531 0
1.25515 0.00188418 0
1.25455 0.00182656 0
1.25508 0.002531 0
1.25447 0.00244669 0
1.2546 0.00121351 0
1.25393 0.00117262 0
1.25455 0.00182656 0
1.25387 0.00176169 0
1.25393 0.00117262 0
1.25354 0.00112945 0
1.25387 0.00176169 0
1.25348 0.00169386 0
1.25455 0.00182656 0
1.25387 0.00176169 0
1.25447 0.00244669 0
1.25379 0.00235354 0
1.25387 0.00176169 0
1.25348 0.00169386 0
1.25379 0.00235354 0
1.2534 0.00225735 0
1.25379 0.0206925 0
1.25159 0.0182035 0
1.25078 0.0232437 0
1.24878 0.0198605 0
1.25159 0.0182035 0
1.2501 0.0158647 0
1.24878 0.0198605 0
1.2476 0.0168802 0
1.25078 0.0232437 0
1.24878 0.0198605 0
1.24663 0.025481 0
1.24518 0.0210966 0
1.24878 0.0198605 0
1.2476 0.0168802 0
1.24518 0.0210966 0
1.24458 0.0174646 0
1.2501 0.0158647 0
1.24913 0.0137619 0
1.2476 0.0168802 0
1.24698 0.0143321 0
1.24913 0.0137619 0
1.24855 0.0119226 0
1.24698 0.0143321 0
1.24672 0.012191 0
1.2476 0.0168802 0
1.24698 0.0143321 0
1.24458 0.0174646 0
1.24447 0.0145053 0
1.24698 0.0143321 0
1.24672 0.012191 0
1.24447 0.0145053 0
1.24467 0.0121126 0
1.24663 0.025481 0
1.24518 0.0210966 0
1.24122 0.0268954 0
1.2408 0.0215082 0
1.24518 0.0210966 0
1.24458 0.0174646 0
1.2408 0.0215082 0
1.24108 0.0173135 0