# vtk DataFile Version 3.0
#This file was generated by the deal.II library on 2020/11/19 at 16:36:59
ASCII
DATASET UNSTRUCTURED_GRID

POINTS 44800 double
4.275 0.475 0
4.3 0.475 0
4.275 0.5 0
4.3 0.5 0
4.25 0.475 0
4.275 0.475 0
4.25 0.5 0
4.275 0.5 0
4.25 0.45 0
4.275 0.45 0
4.25 0.475 0
4.275 0.475 0
4.275 0.45 0
4.3 0.45 0
4.275 0.475 0
4.3 0.475 0
4.325 0.45 0
4.325 0.475 0
4.3 0.45 0
4.3 0.475 0
4.35 0.45 0
4.35 0.475 0
4.325 0.45 0
4.325 0.475 0
4.35 0.475 0
4.35 0.5 0
4.325 0.475 0
4.325 0.5 0
4.325 0.475 0
4.325 0.5 0
4.3 0.475 0
4.3 0.5 0
4.35 0.525 0
4.35 0.55 0
4.325 0.525 0
4.325 0.55 0
4.325 0.525 0
4.325 0.55 0
4.3 0.525 0
4.3 0.55 0
4.325 0.5 0
4.325 0.525 0
4.3 0.5 0
4.3 0.525 0
4.35 0.5 0
4.35 0.525 0
4.325 0.5 0
4.325 0.525 0
4.425 0.5 0
4.425 0.525 0
4.4 0.5 0
4.4 0.525 0
4.45 0.5 0
4.45 0.525 0
4.425 0.5 0
4.425 0.525 0
4.45 0.525 0
4.45 0.55 0
4.425 0.525 0
4.425 0.55 0
4.425 0.525 0
4.425 0.55 0
4.4 0.525 0
4.4 0.55 0
5.825 0.525 0
5.85 0.525 0
5.825 0.55 0
5.85 0.55 0
5.8 0.525 0
5.825 0.525 0
5.8 0.55 0
5.825 0.55 0
5.8 0.5 0
5.825 0.5 0
5.8 0.525 0
5.825 0.525 0
5.825 0.5 0
5.85 0.5 0
5.825 0.525 0
5.85 0.525 0
5.575 0.5 0
5.575 0.525 0
5.55 0.5 0
5.55 0.525 0
5.6 0.5 0
5.6 0.525 0
5.575 0.5 0
5.575 0.525 0
5.6 0.525 0
5.6 0.55 0
5.575 0.525 0
5.575 0.55 0
5.575 0.525 0
5.575 0.55 0
5.55 0.525 0
5.55 0.55 0
5.325 0.525 0
5.35 0.525 0
5.325 0.55 0
5.35 0.55 0
5.3 0.525 0
5.325 0.525 0
5.3 0.55 0
5.325 0.55 0
5.3 0.5 0
5.325 0.5 0
5.3 0.525 0
5.325 0.525 0
5.325 0.5 0
5.35 0.5 0
5.325 0.525 0
5.35 0.525 0
5.925 0.5 0
5.925 0.525 0
5.9 0.5 0
5.9 0.525 0
5.95 0.5 0
5.95 0.525 0
5.925 0.5 0
5.925 0.525 0
5.95 0.525 0
5.95 0.55 0
5.925 0.525 0
5.925 0.55 0
5.925 0.525 0
5.925 0.55 0
5.9 0.525 0
5.9 0.55 0
5.425 0.5 0
5.425 0.525 0
5.4 0.5 0
5.4 0.525 0
5.45 0.5 0
5.45 0.525 0
5.425 0.5 0
5.425 0.525 0
5.45 0.525 0
5.45 0.55 0
5.425 0.525 0
5.425 0.55 0
5.425 0.525 0
5.425 0.55 0
5.4 0.525 0
5.4 0.55 0
4.725 0.525 0
4.75 0.525 0
4.725 0.55 0
4.75 0.55 0
4.7 0.525 0
4.725 0.525 0
4.7 0.55 0
4.725 0.55 0
4.7 0.5 0
4.725 0.5 0
4.7 0.525 0
4.725 0.525 0
4.725 0.5 0
4.75 0.5 0
4.725 0.525 0
4.75 0.525 0
6.075 0.525 0
6.1 0.525 0
6.075 0.55 0
6.1 0.55 0
6.05 0.525 0
6.075 0.525 0
6.05 0.55 0
6.075 0.55 0
6.05 0.5 0
6.075 0.5 0
6.05 0.525 0
6.075 0.525 0
6.075 0.5 0
6.1 0.5 0
6.075 0.525 0
6.1 0.525 0
5.775 0.525 0
5.8 0.525 0
5.775 0.55 0
5.8 0.55 0
5.75 0.525 0
5.775 0.525 0
5.75 0.55 0
5.775 0.55 0
5.75 0.5 0
5.775 0.5 0
5.75 0.525 0
5.775 0.525 0
5.775 0.5 0
5.8 0.5 0
5.775 0.525 0
5.8 0.525 0
6.425 0.45 0
6.425 0.475 0
6.4 0.45 0
6.4 0.475 0
6.45 0.45 0
6.45 0.475 0
6.425 0.45 0
6.425 0.475 0
6.45 0.475 0
6.45 0.5 0
6.425 0.475 0
6.425 0.5 0
6.425 0.475 0
6.425 0.5 0
6.4 0.475 0
6.4 0.5 0
5.175 0.525 0
5.2 0.525 0
5.175 0.55 0
5.2 0.55 0
5.15 0.525 0
5.175 0.525 0
5.15 0.55 0
5.175 0.55 0
5.15 0.5 0
5.175 0.5 0
5.15 0.525 0
5.175 0.525 0
5.175 0.5 0
5.2 0.5 0
5.175 0.525 0
5.2 0.525 0
4.825 0.525 0
4.85 0.525 0
4.825 0.55 0
4.85 0.55 0
4.8 0.525 0
4.825 0.525 0
4.8 0.55 0
4.825 0.55 0
4.8 0.5 0
4.825 0.5 0
4.8 0.525 0
4.825 0.525 0
4.825 0.5 0
4.85 0.5 0
4.825 0.525 0
4.85 0.525 0
4.975 0.475 0
5 0.475 0
4.975 0.5 0
5 0.5 0
4.95 0.475 0
4.975 0.475 0
4.95 0.5 0
4.975 0.5 0
4.95 0.45 0
4.975 0.45 0
4.95 0.475 0
4.975 0.475 0
4.975 0.45 0
5 0.45 0
4.975 0.475 0
5 0.475 0
6.225 0.525 0
6.25 0.525 0
6.225 0.55 0
6.25 0.55 0
6.2 0.525 0
6.225 0.525 0
6.2 0.55 0
6.225 0.55 0
6.2 0.5 0
6.225 0.5 0
6.2 0.525 0
6.225 0.525 0
6.225 0.5 0
6.25 0.5 0
6.225 0.525 0
6.25 0.525 0
6.325 0.525 0
6.35 0.525 0
6.325 0.55 0
6.35 0.55 0
6.3 0.525 0
6.325 0.525 0
6.3 0.55 0
6.325 0.55 0
6.3 0.5 0
6.325 0.5 0
6.3 0.525 0
6.325 0.525 0
6.325 0.5 0
6.35 0.5 0
6.325 0.525 0
6.35 0.525 0
5.075 0.525 0
5.1 0.525 0
5.075 0.55 0
5.1 0.55 0
5.05 0.525 0
5.075 0.525 0
5.05 0.55 0
5.075 0.55 0
5.05 0.5 0
5.075 0.5 0
5.05 0.525 0
5.075 0.525 0
5.075 0.5 0
5.1 0.5 0
5.075 0.525 0
5.1 0.525 0
4.925 0.475 0
4.95 0.475 0
4.925 0.5 0
4.95 0.5 0
4.9 0.475 0
4.925 0.475 0
4.9 0.5 0
4.925 0.5 0
4.9 0.45 0
4.925 0.45 0
4.9 0.475 0
4.925 0.475 0
4.925 0.45 0
4.95 0.45 0
4.925 0.475 0
4.95 0.475 0
4.975 0.525 0
5 0.525 0
4.975 0.55 0
5 0.55 0
4.95 0.525 0
4.975 0.525 0
4.95 0.55 0
4.975 0.55 0
4.95 0.5 0
4.975 0.5 0
4.95 0.525 0
4.975 0.525 0
4.975 0.5 0
5 0.5 0
4.975 0.525 0
5 0.525 0
6.175 0.525 0
6.2 0.525 0
6.175 0.55 0
6.2 0.55 0
6.15 0.525 0
6.175 0.525 0
6.15 0.55 0
6.175 0.55 0
6.15 0.5 0
6.175 0.5 0
6.15 0.525 0
6.175 0.525 0
6.175 0.5 0
6.2 0.5 0
6.175 0.525 0
6.2 0.525 0
5.275 0.525 0
5.3 0.525 0
5.275 0.55 0
5.3 0.55 0
5.25 0.525 0
5.275 0.525 0
5.25 0.55 0
5.275 0.55 0
5.25 0.5 0
5.275 0.5 0
5.25 0.525 0
5.275 0.525 0
5.275 0.5 0
5.3 0.5 0
5.275 0.525 0
5.3 0.525 0
4.625 0.525 0
4.65 0.525 0
4.625 0.55 0
4.65 0.55 0
4.6 0.525 0
4.625 0.525 0
4.6 0.55 0
4.625 0.55 0
4.6 0.5 0
4.625 0.5 0
4.6 0.525 0
4.625 0.525 0
4.625 0.5 0
4.65 0.5 0
4.625 0.525 0
4.65 0.525 0
4.525 0.525 0
4.55 0.525 0
4.525 0.55 0
4.55 0.55 0
4.5 0.525 0
4.525 0.525 0
4.5 0.55 0
4.525 0.55 0
4.5 0.5 0
4.525 0.5 0
4.5 0.525 0
4.525 0.525 0
4.525 0.5 0
4.55 0.5 0
4.525 0.525 0
4.55 0.525 0
4.375 0.525 0
4.4 0.525 0
4.375 0.55 0
4.4 0.55 0
4.35 0.525 0
4.375 0.525 0
4.35 0.55 0
4.375 0.55 0
4.35 0.5 0
4.375 0.5 0
4.35 0.525 0
4.375 0.525 0
4.375 0.5 0
4.4 0.5 0
4.375 0.525 0
4.4 0.525 0
6.525 0.475 0
6.55 0.475 0
6.525 0.5 0
6.55 0.5 0
6.5 0.475 0
6.525 0.475 0
6.5 0.5 0
6.525 0.5 0
6.5 0.45 0
6.525 0.45 0
6.5 0.475 0
6.525 0.475 0
6.525 0.45 0
6.55 0.45 0
6.525 0.475 0
6.55 0.475 0
4.175 0.45 0
4.175 0.475 0
4.15 0.45 0
4.15 0.475 0
4.2 0.45 0
4.2 0.475 0
4.175 0.45 0
4.175 0.475 0
4.2 0.475 0
4.2 0.5 0
4.175 0.475 0
4.175 0.5 0
4.175 0.475 0
4.175 0.5 0
4.15 0.475 0
4.15 0.5 0
5.475 0.525 0
5.5 0.525 0
5.475 0.55 0
5.5 0.55 0
5.45 0.525 0
5.475 0.525 0
5.45 0.55 0
5.475 0.55 0
5.45 0.5 0
5.475 0.5 0
5.45 0.525 0
5.475 0.525 0
5.475 0.5 0
5.5 0.5 0
5.475 0.525 0
5.5 0.525 0
5.525 0.525 0
5.55 0.525 0
5.525 0.55 0
5.55 0.55 0
5.5 0.525 0
5.525 0.525 0
5.5 0.55 0
5.525 0.55 0
5.5 0.5 0
5.525 0.5 0
5.5 0.525 0
5.525 0.525 0
5.525 0.5 0
5.55 0.5 0
5.525 0.525 0
5.55 0.525 0
4.225 0.475 0
4.25 0.475 0
4.225 0.5 0
4.25 0.5 0
4.2 0.475 0
4.225 0.475 0
4.2 0.5 0
4.225 0.5 0
4.2 0.45 0
4.225 0.45 0
4.2 0.475 0
4.225 0.475 0
4.225 0.45 0
4.25 0.45 0
4.225 0.475 0
4.25 0.475 0
5.875 0.525 0
5.9 0.525 0
5.875 0.55 0
5.9 0.55 0
5.85 0.525 0
5.875 0.525 0
5.85 0.55 0
5.875 0.55 0
5.85 0.5 0
5.875 0.5 0
5.85 0.525 0
5.875 0.525 0
5.875 0.5 0
5.9 0.5 0
5.875 0.525 0
5.9 0.525 0
5.375 0.525 0
5.4 0.525 0
5.375 0.55 0
5.4 0.55 0
5.35 0.525 0
5.375 0.525 0
5.35 0.55 0
5.375 0.55 0
5.35 0.5 0
5.375 0.5 0
5.35 0.525 0
5.375 0.525 0
5.375 0.5 0
5.4 0.5 0
5.375 0.525 0
5.4 0.525 0
4.675 0.525 0
4.7 0.525 0
4.675 0.55 0
4.7 0.55 0
4.65 0.525 0
4.675 0.525 0
4.65 0.55 0
4.675 0.55 0
4.65 0.5 0
4.675 0.5 0
4.65 0.525 0
4.675 0.525 0
4.675 0.5 0
4.7 0.5 0
4.675 0.525 0
4.7 0.525 0
6.125 0.525 0
6.15 0.525 0
6.125 0.55 0
6.15 0.55 0
6.1 0.525 0
6.125 0.525 0
6.1 0.55 0
6.125 0.55 0
6.1 0.5 0
6.125 0.5 0
6.1 0.525 0
6.125 0.525 0
6.125 0.5 0
6.15 0.5 0
6.125 0.525 0
6.15 0.525 0
5.625 0.525 0
5.65 0.525 0
5.625 0.55 0
5.65 0.55 0
5.6 0.525 0
5.625 0.525 0
5.6 0.55 0
5.625 0.55 0
5.6 0.5 0
5.625 0.5 0
5.6 0.525 0
5.625 0.525 0
5.625 0.5 0
5.65 0.5 0
5.625 0.525 0
5.65 0.525 0
5.975 0.525 0
6 0.525 0
5.975 0.55 0
6 0.55 0
5.95 0.525 0
5.975 0.525 0
5.95 0.55 0
5.975 0.55 0
5.95 0.5 0
5.975 0.5 0
5.95 0.525 0
5.975 0.525 0
5.975 0.5 0
6 0.5 0
5.975 0.525 0
6 0.525 0
5.125 0.525 0
5.15 0.525 0
5.125 0.55 0
5.15 0.55 0
5.1 0.525 0
5.125 0.525 0
5.1 0.55 0
5.125 0.55 0
5.1 0.5 0
5.125 0.5 0
5.1 0.525 0
5.125 0.525 0
5.125 0.5 0
5.15 0.5 0
5.125 0.525 0
5.15 0.525 0
5.225 0.525 0
5.25 0.525 0
5.225 0.55 0
5.25 0.55 0
5.2 0.525 0
5.225 0.525 0
5.2 0.55 0
5.225 0.55 0
5.2 0.5 0
5.225 0.5 0
5.2 0.525 0
5.225 0.525 0
5.225 0.5 0
5.25 0.5 0
5.225 0.525 0
5.25 0.525 0
5.725 0.525 0
5.75 0.525 0
5.725 0.55 0
5.75 0.55 0
5.7 0.525 0
5.725 0.525 0
5.7 0.55 0
5.725 0.55 0
5.7 0.5 0
5.725 0.5 0
5.7 0.525 0
5.725 0.525 0
5.725 0.5 0
5.75 0.5 0
5.725 0.525 0
5.75 0.525 0
6.275 0.525 0
6.3 0.525 0
6.275 0.55 0
6.3 0.55 0
6.25 0.525 0
6.275 0.525 0
6.25 0.55 0
6.275 0.55 0
6.25 0.5 0
6.275 0.5 0
6.25 0.525 0
6.275 0.525 0
6.275 0.5 0
6.3 0.5 0
6.275 0.525 0
6.3 0.525 0
6.475 0.475 0
6.5 0.475 0
6.475 0.5 0
6.5 0.5 0
6.45 0.475 0
6.475 0.475 0
6.45 0.5 0
6.475 0.5 0
6.45 0.45 0
6.475 0.45 0
6.45 0.475 0
6.475 0.475 0
6.475 0.45 0
6.5 0.45 0
6.475 0.475 0
6.5 0.475 0
7.375 0.45 0
7.375 0.475 0
7.35 0.45 0
7.35 0.475 0
7.4 0.45 0
7.4 0.475 0
7.375 0.45 0
7.375 0.475 0
7.4 0.475 0
7.4 0.5 0
7.375 0.475 0
7.375 0.5 0
7.375 0.475 0
7.375 0.5 0
7.35 0.475 0
7.35 0.5 0
6.625 0.5 0
6.625 0.525 0
6.6 0.5 0
6.6 0.525 0
6.65 0.5 0
6.65 0.525 0
6.625 0.5 0
6.625 0.525 0
6.65 0.525 0
6.65 0.55 0
6.625 0.525 0
6.625 0.55 0
6.625 0.525 0
6.625 0.55 0
6.6 0.525 0
6.6 0.55 0
6.575 0.525 0
6.6 0.525 0
6.575 0.55 0
6.6 0.55 0
6.55 0.525 0
6.575 0.525 0
6.55 0.55 0
6.575 0.55 0
6.55 0.5 0
6.575 0.5 0
6.55 0.525 0
6.575 0.525 0
6.575 0.5 0
6.6 0.5 0
6.575 0.525 0
6.6 0.525 0
7.375 0.5 0
7.375 0.525 0
7.35 0.5 0
7.35 0.525 0
7.4 0.5 0
7.4 0.525 0
7.375 0.5 0
7.375 0.525 0
7.4 0.525 0
7.4 0.55 0
7.375 0.525 0
7.375 0.55 0
7.375 0.525 0
7.375 0.55 0
7.35 0.525 0
7.35 0.55 0
4.125 0.475 0
4.15 0.475 0
4.125 0.5 0
4.15 0.5 0
4.1 0.475 0
4.125 0.475 0
4.1 0.5 0
4.125 0.5 0
4.1 0.45 0
4.125 0.45 0
4.1 0.475 0
4.125 0.475 0
4.125 0.45 0
4.15 0.45 0
4.125 0.475 0
4.15 0.475 0
4.075 0.475 0
4.1 0.475 0
4.075 0.5 0
4.1 0.5 0
4.05 0.475 0
4.075 0.475 0
4.05 0.5 0
4.075 0.5 0
4.05 0.45 0
4.075 0.45 0
4.05 0.475 0
4.075 0.475 0
4.075 0.45 0
4.1 0.45 0
4.075 0.475 0
4.1 0.475 0
6.675 0.5 0
6.675 0.525 0
6.65 0.5 0
6.65 0.525 0
6.7 0.5 0
6.7 0.525 0
6.675 0.5 0
6.675 0.525 0
6.7 0.525 0
6.7 0.55 0
6.675 0.525 0
6.675 0.55 0
6.675 0.525 0
6.675 0.55 0
6.65 0.525 0
6.65 0.55 0
2.275 0.325 0
2.275 0.3 0
2.3 0.325 0
2.3 0.3 0
2.275 0.35 0
[...]
POINT_DATA 44800
SCALARS solution_0 double 1
LOOKUP_TABLE default
0.818181 0.815995 0.820402 0.81791 0.820418 0.818181 0.82297 0.820402 0.811152 0.809333 0.820418 0.818181 0.809333 0.80754 0.818181 0.815995 0.805775 0.813861 0.80754 0.815995 0.804038 0.81178 0.805775 0.813861 0.81178 0.813147 0.813861 0.815492 0.813861 0.815492 0.815995 0.81791 0.808044 0.796518 0.810561 0.799115 0.810561 0.799115 0.813171 0.801821 0.815492 0.810561 0.81791 0.813171 0.813147 0.808044 0.815492 0.810561 0.806546 0.801028 0.808676 0.803279 0.804486 0.798861 0.806546 0.801028 0.798861 0.787162 0.801028 0.789352 0.801028 0.789352 0.803279 0.79164 0.752229 0.752009 0.744571 0.744415 0.752457 0.752229 0.744734 0.744571 0.756143 0.755861 0.752457 0.752229 0.755861 0.75559 0.752229 0.752009 0.75919 0.754979 0.759594 0.75532 0.758801 0.754652 0.75919 0.754979 0.754652 0.746356 0.754979 0.746605 0.754979 0.746605 0.75532 0.746867 0.759107 0.758614 0.749879 0.749476 0.759621 0.759107 0.750302 0.749879 0.76455 0.763969 0.759621 0.759107 0.763969 0.763409 0.759107 0.758614 0.754831 0.751401 0.755075 0.751596 0.754595 0.751214 0.754831 0.751401 0.751214 0.743858 0.751401 0.743988 0.751401 0.743988 0.751596 0.744124 0.761847 0.75725 0.762349 0.757686 0.761363 0.756832 0.761847 0.75725 0.756832 0.748046 0.75725 0.748378 0.75725 0.748378 0.757686 0.748727 0.779892 0.77855 0.768531 0.767258 0.78129 0.779892 0.769866 0.768531 0.787347 0.785944 0.78129 0.779892 0.785944 0.784591 0.779892 0.77855 0.75038 0.750232 0.74329 0.743191 0.750534 0.75038 0.743394 0.74329 0.753734 0.753538 0.750534 0.75038 0.753538 0.753348 0.75038 0.750232 0.752694 0.752457 0.744905 0.744734 0.752941 0.752694 0.745085 0.744905 0.756738 0.756435 0.752941 0.752694 0.756435 0.756143 0.752694 0.752457 0.745085 0.750202 0.745244 0.750344 0.744931 0.750066 0.745085 0.750202 0.750066 0.751301 0.750202 0.751416 0.750202 0.751416 0.750344 0.751534 0.762538 0.761905 0.752751 0.752212 0.763198 0.762538 0.753316 0.752751 0.768518 0.767794 0.763198 0.762538 0.767794 0.767097 0.762538 0.761905 0.774841 0.773704 0.763777 0.762721 0.776027 0.774841 0.764883 0.763777 0.782028 0.780815 0.776027 0.774841 0.780815 0.779646 0.774841 0.773704 0.775241 0.774292 0.774405 0.773468 0.776221 0.775241 0.775378 0.774405 0.772128 0.77118 0.776221 0.775241 0.77118 0.770258 0.775241 0.774292 0.749571 0.749454 0.742755 0.742679 0.749694 0.749571 0.742835 0.742755 0.752654 0.752496 0.749694 0.749571 0.752496 0.752343 0.749571 0.749454 0.749128 0.749027 0.742468 0.742404 0.749232 0.749128 0.742535 0.742468 0.752054 0.751917 0.749232 0.749128 0.751917 0.751785 0.749128 0.749027 0.765352 0.764604 0.755185 0.754532 0.766132 0.765352 0.755871 0.755185 0.771695 0.770856 0.766132 0.765352 0.770856 0.770048 0.765352 0.764604 0.777233 0.776221 0.776386 0.775378 0.778278 0.777233 0.777433 0.776386 0.774104 0.773103 0.778278 0.777233 0.773103 0.772128 0.777233 0.776221 0.76868 0.767795 0.758138 0.757345 0.769602 0.76868 0.758969 0.758138 0.775378 0.774405 0.769602 0.76868 0.774405 0.773468 0.76868 0.767795 0.74982 0.749694 0.742918 0.742835 0.749952 0.74982 0.743005 0.742918 0.752989 0.752818 0.749952 0.74982 0.752818 0.752654 0.74982 0.749694 0.760157 0.759621 0.750745 0.750302 0.760715 0.760157 0.751211 0.750745 0.765777 0.765152 0.760715 0.760157 0.765152 0.76455 0.760157 0.759621 0.785844 0.784264 0.77426 0.772727 0.78749 0.785844 0.775864 0.77426 0.793491 0.791872 0.78749 0.785844 0.791872 0.790309 0.785844 0.784264 0.79284 0.790985 0.781136 0.779299 0.794769 0.79284 0.783057 0.781136 0.800567 0.798705 0.794769 0.79284 0.798705 0.796906 0.79284 0.790985 0.805617 0.803279 0.794027 0.79164 0.808044 0.805617 0.796518 0.794027 0.813147 0.810876 0.808044 0.805617 0.810876 0.808676 0.805617 0.803279 0.749683 0.749564 0.750983 0.750884 0.749806 0.749683 0.751085 0.750983 0.744638 0.7445 0.749806 0.749683 0.7445 0.744366 0.749683 0.749564 0.816742 0.827427 0.81864 0.829857 0.814859 0.825042 0.816742 0.827427 0.825042 0.828333 0.827427 0.831128 0.827427 0.831128 0.829857 0.833999 0.756431 0.756045 0.74773 0.747428 0.756832 0.756431 0.748046 0.74773 0.761363 0.760897 0.756832 0.756431 0.760897 0.760447 0.756431 0.756045 0.755675 0.75532 0.747141 0.746867 0.756045 0.755675 0.747428 0.747141 0.760447 0.760013 0.756045 0.755675 0.760013 0.759594 0.755675 0.75532 0.822705 0.820418 0.825613 0.82297 0.825042 0.822705 0.828333 0.825613 0.814859 0.812995 0.825042 0.822705 0.812995 0.811152 0.822705 0.820418 0.751799 0.751596 0.744266 0.744124 0.752009 0.751799 0.744415 0.744266 0.75559 0.755328 0.752009 0.751799 0.755328 0.755075 0.751799 0.751596 0.75814 0.757686 0.749092 0.748727 0.758614 0.75814 0.749476 0.749092 0.763409 0.76287 0.758614 0.75814 0.76287 0.762349 0.75814 0.757686 0.782747 0.78129 0.771263 0.769866 0.784264 0.782747 0.772727 0.771263 0.790309 0.788802 0.784264 0.782747 0.788802 0.787347 0.782747 0.78129 0.750089 0.749952 0.743096 0.743005 0.750232 0.750089 0.743191 0.743096 0.753348 0.753165 0.750232 0.750089 0.753165 0.752989 0.750089 0.749952 0.754337 0.754035 0.746118 0.745892 0.754652 0.754337 0.746356 0.746118 0.758801 0.758425 0.754652 0.754337 0.758425 0.758063 0.754337 0.754035 0.751034 0.750861 0.743734 0.743616 0.751214 0.751034 0.743858 0.743734 0.754595 0.754368 0.751214 0.751034 0.754368 0.754149 0.751034 0.750861 0.763886 0.763198 0.753909 0.753316 0.764604 0.763886 0.754532 0.753909 0.770048 0.769269 0.764604 0.763886 0.769269 0.768518 0.763886 0.763198 0.761298 0.760715 0.751699 0.751211 0.761905 0.761298 0.752212 0.751699 0.767097 0.766425 0.761905 0.761298 0.766425 0.765777 0.761298 0.760715 0.753199 0.752941 0.745272 0.745085 0.753466 0.753199 0.745469 0.745272 0.757377 0.757051 0.753466 0.753199 0.757051 0.756738 0.753199 0.752941 0.749341 0.749232 0.742606 0.742535 0.749454 0.749341 0.742679 0.742606 0.752343 0.752196 0.749454 0.749341 0.752196 0.752054 0.749341 0.749232 0.749933 0.749806 0.751191 0.751085 0.750066 0.749933 0.751301 0.751191 0.744931 0.744782 0.750066 0.749933 0.744782 0.744638 0.749933 0.749806 0.74183 0.747323 0.74187 0.747358 0.741792 0.747289 0.74183 0.747323 0.747289 0.749005 0.747323 0.749033 0.747323 0.749033 0.747358 0.749062 0.750608 0.748138 0.750697 0.748205 0.750523 0.748074 0.750608 0.748138 0.748074 0.741807 0.748138 0.741847 0.748138 0.741847 0.748205 0.741888 0.748274 0.748205 0.74193 0.741888 0.748345 0.748274 0.741975 0.74193 0.750884 0.750789 0.748345 0.748274 0.750789 0.750697 0.748274 0.748205 0.749033 0.746967 0.749062 0.746988 0.749005 0.746946 0.749033 0.746967 0.746946 0.741122 0.746967 0.741134 0.746967 0.741134 0.746988 0.741147 0.832332 0.829857 0.836944 0.833999 0.834849 0.832332 0.839964 0.836944 0.82247 0.820551 0.834849 0.832332 0.820551 0.81864 0.832332 0.829857 0.837404 0.834849 0.843056 0.839964 0.839995 0.837404 0.846219 0.843056 0.826316 0.824393 0.839995 0.837404 0.824393 0.82247 0.837404 0.834849 0.750441 0.748013 0.750523 0.748074 0.750361 0.747954 0.750441 0.748013 0.747954 0.741733 0.748013 0.741769 0.748013 0.741769 0.748074 0.741807 -0.0083761 -0.0358023 -0.00169204 -0.0326804 0.0267785 -0.0083761 0.0373805 -0.00169204 0.0168512 -0.0141631 0.0267785 -0.0083761 -0.0141631 -0.0379074 -0.0083761 -0.0358023 0.719049 0.718539 0.736125 0.735593 0.697783 0.697305 0.719049 0.718539 0.697305 0.696835 0.718539 0.718039 0.718539 0.718039 0.735593 0.735073 0.750491 0.750344 0.751657 0.751534 0.750644 0.750491 0.751785 0.751657 0.74558 0.745409 0.750644 0.750491 0.745409 0.745244 0.750491 0.750344 0.842618 0.839995 0.84945 0.846219 0.845267 0.842618 0.852748 0.84945 0.830139 0.828233 0.845267 0.842618 0.828233 0.826316 0.842618 0.839995 0.855198 0.864724 0.944528 0.951401 0.944528 0.951401 1.02531 1.02916 0.937026 0.944528 1.02083 1.02531 0.845056 0.855198 0.937026 0.944528 0.754801 0.754509 0.755328 0.755075 0.755103 0.754801 0.75559 0.755328 0.750516 0.750187 0.755103 0.754801 0.750187 0.749867 0.754801 0.754509 0.748666 0.75014 0.748752 0.750211 0.743352 0.748666 0.743449 0.748752 0.743258 0.748584 0.743352 0.748666 0.748584 0.750072 0.748666 0.75014 0.657213 0.629071 0.65719 0.62905 0.681597 0.657213 0.681571 0.65719 0.681623 0.657237 0.681597 0.657213 0.657237 0.629093 0.657213 0.629071 -0.0286951 -0.0379382 -0.0321114 -0.0420956 -0.0200013 -0.0286951 -0.0225811 -0.0321114 -0.0167135 -0.0242571 -0.0200013 -0.0286951 -0.0242571 -0.0323953 -0.0286951 -0.0379382 0.847939 0.845267 0.856108 0.852748 0.850629 0.847939 0.859526 0.856108 0.833891 0.832027 0.850629 0.847939 0.832027 0.830139 0.847939 0.845267 0.748504 0.750006 0.748584 0.750072 0.743168 0.748504 0.743258 0.748584 0.743081 0.748427 0.743168 0.748504 0.748427 0.749942 0.748504 0.750006 0.59714 0.561503 0.597123 0.561489 0.62903 0.59714 0.62901 0.597123 0.62905 0.597157 0.62903 0.59714 0.597157 0.561518 0.59714 0.561503 0.853329 0.850629 0.863 0.859526 0.856034 0.853329 0.866522 0.863 0.837516 0.835723 0.856034 0.853329 0.835723 0.833891 0.853329 0.850629 0.803977 0.804486 0.80585 0.806546 0.80585 0.806546 0.807774 0.808676 0.799015 0.80585 0.800658 0.807774 0.797406 0.803977 0.799015 0.80585 -0.0122468 -0.0200013 -0.0139486 -0.0225811 -0.00590635 -0.0122468 -0.00678189 -0.0139486 -0.00480683 -0.0101025 -0.00590635 -0.0122468 -0.0101025 -0.0167135 -0.0122468 -0.0200013 0.691553 0.811332 0.673541 0.795777 0.708833 0.826159 0.691553 0.811332 0.826159 0.941019 0.811332 0.929445 0.811332 0.929445 0.795777 0.917202 0.858735 0.856034 0.870088 0.866522 0.861426 0.858735 0.87369 0.870088 0.840947 0.83926 0.861426 0.858735 0.83926 0.837516 0.858735 0.856034 1.04816 1.04036 0.941019 0.929445 1.14236 1.13854 1.04816 1.04036 1.13854 1.13423 1.04036 1.03197 1.04036 1.03197 0.929445 0.917202 0.90673 0.91613 0.931006 0.939543 0.897535 0.90673 0.922606 0.931006 0.862548 0.872267 0.897535 0.90673 0.872267 0.882252 0.90673 0.91613 0.432155 0.432148 0.478995 0.478986 0.432162 0.432155 0.479004 0.478995 0.381593 0.381587 0.432162 0.432155 0.381587 0.381582 0.432155 0.432148 0.596135 0.628005 0.59616 0.628028 0.59616 0.628028 0.596185 0.62805 0.560576 0.59616 0.560602 0.596185 0.56055 0.596135 0.560576 0.59616 1.15804 1.19678 1.14251 1.18314 1.14251 1.18314 1.12683 1.16926 1.08329 1.14251 1.06635 1.12683 1.10018 1.15804 1.08329 1.14251 0.959409 0.959153 0.951939 0.953089 0.948202 0.959409 0.939543 0.951939 0.956967 0.966909 0.948202 0.959409 0.966909 0.965172 0.959409 0.959153 0.530997 0.530723 0.571883 0.571571 0.486385 0.486146 0.530997 0.530723 0.486146 0.485909 0.530723 0.530451 0.530723 0.530451 0.571571 0.571262 1.4826 1.48261 1.49761 1.49762 1.48258 1.4826 1.4976 1.49761 1.43759 1.43761 1.48258 1.4826 1.43761 1.43762 1.4826 1.48261 0.327294 0.32729 0.381587 0.381582 0.327298 0.327294 0.381593 0.381587 0.269281 0.269278 0.327298 0.327294 0.269278 0.269275 0.327294 0.32729 0.750652 0.750066 0.759136 0.758551 0.751253 0.750652 0.759739 0.759136 0.738381 0.737798 0.751253 0.750652 0.737798 0.737228 0.750652 0.750066 0.685808 0.661145 0.685631 0.660977 0.685992 0.661318 0.685808 0.661145 0.661318 0.632783 0.661145 0.632623 0.661145 0.632623 0.660977 0.632469 0.779358 0.778278 0.778519 0.777433 0.780473 0.779358 0.779646 0.778519 0.776192 0.775134 0.780473 0.779358 0.775134 0.774104 0.779358 0.778278 0.16565 0.184099 0.243829 0.265027 0.243829 0.265027 0.337375 0.360377 0.222116 0.243829 0.313536 0.337375 0.147049 0.16565 0.222116 0.243829 1.02477 1.10018 1.00713 1.08329 1.00713 1.08329 0.989508 1.06635 0.916189 1.00713 0.89852 0.989508 0.933962 1.02477 0.916189 1.00713 0.890985 0.886369 0.888109 0.882687 0.895659 0.890985 0.893643 0.888109 0.888313 0.884644 0.895659 0.890985 0.884644 0.880977 0.890985 0.886369 0.918931 0.931411 0.958631 0.970286 0.906679 0.918931 0.947126 0.958631 0.855765 0.868399 0.906679 0.918931 0.868399 0.881328 0.918931 0.931411 0.697305 0.67197 0.696835 0.671536 0.697783 0.67241 0.697305 0.67197 0.67241 0.643018 0.67197 0.642619 0.67197 0.642619 0.671536 0.642225 0.593705 0.708833 0.574946 0.691553 0.574946 0.691553 0.555522 0.673541 0.465161 0.574946 0.445404 0.555522 0.484383 0.593705 0.465161 0.574946 0.744501 0.762391 0.876411 0.890691 0.725763 0.744501 0.86144 0.876411 0.5934 0.614751 0.725763 0.744501 0.614751 0.635185 0.744501 0.762391 0.533669 0.585926 0.53146 0.583235 0.53609 0.588838 0.533669 0.585926 0.588838 0.638897 0.585926 0.63554 0.585926 0.63554 0.583235 0.632409 0.909934 0.905144 0.910847 0.905021 0.91474 0.909934 0.916751 0.910847 0.902794 0.899229 0.91474 0.909934 0.899229 0.895618 0.909934 0.905144 0.50309 0.611824 0.484383 0.593705 0.521296 0.629324 0.50309 0.611824 0.629324 0.741295 0.611824 0.725407 0.611824 0.725407 0.593705 0.708833 0.947584 0.943094 0.959153 0.953089 0.951956 0.947584 0.965172 0.959153 0.927789 0.925174 0.951956 0.947584 0.925174 0.922374 0.947584 0.943094 0.919548 0.91474 0.922721 0.916751 0.924344 0.919548 0.928745 0.922721 0.909732 0.906301 0.924344 0.919548 0.906301 0.902794 0.919548 0.91474 0.760498 0.772205 0.855198 0.864724 0.748219 0.760498 0.845056 0.855198 0.649552 0.663396 0.748219 0.760498 0.663396 0.676741 0.760498 0.772205 0.891975 0.900382 0.895618 0.905144 0.888313 0.895659 0.891975 0.900382 0.895659 0.893643 0.900382 0.899284 0.900382 0.899284 0.905144 0.905021 0.929114 0.924344 0.934809 0.928745 0.933841 0.929114 0.940899 0.934809 0.916305 0.913072 0.933841 0.929114 0.913072 0.909732 0.929114 0.924344 0.956189 0.951956 0.971124 0.965172 0.960261 0.956189 0.976988 0.971124 0.932387 0.930201 0.960261 0.956189 0.930201 0.927789 0.956189 0.951956 0.777932 0.778414 0.812856 0.812236 0.778414 0.778756 0.812236 0.811516 0.812236 0.811516 0.83926 0.837516 0.812856 0.812236 0.840947 0.83926 0.678244 0.693386 0.784989 0.798263 0.662524 0.678244 0.771076 0.784989 0.556247 0.573001 0.662524 0.678244 0.573001 0.589276 0.678244 0.693386 0.710781 0.727661 0.711101 0.727983 0.711101 0.727983 0.71143 0.728316 0.690193 0.711101 0.690512 0.71143 0.689882 0.710781 0.690193 0.711101 0.886721 0.888954 0.939566 0.939564 0.884057 0.886721 0.93917 0.939566 0.820671 0.825451 0.884057 0.886721 0.825451 0.829784 0.886721 0.888954 0.833684 0.890772 0.829784 0.888954 0.837164 0.892194 0.833684 0.890772 0.892194 0.938449 0.890772 0.939184 0.890772 0.939184 0.888954 0.939564 0.706227 0.723095 0.706403 0.723272 0.68546 0.706227 0.685631 0.706403 0.685294 0.706056 0.68546 0.706227 0.706056 0.722924 0.706227 0.723095 0.818523 0.828485 0.862548 0.872267 0.766571 0.776498 0.818523 0.828485 0.776498 0.786783 0.828485 0.838765 0.828485 0.838765 0.872267 0.882252 0.803898 0.813323 0.889649 0.896757 0.793905 0.803898 0.881945 0.889649 0.701916 0.713737 0.793905 0.803898 0.713737 0.725043 0.803898 0.813323 0.689583 0.783341 0.676741 0.772205 0.701916 0.793905 0.689583 0.783341 0.793905 0.881945 0.783341 0.873639 0.783341 0.873639 0.772205 0.864724 0.773786 0.852036 0.765075 0.845398 0.781982 0.858137 0.773786 0.852036 0.858137 0.927338 0.852036 0.923626 0.852036 0.923626 0.845398 0.919375 0.701863 0.676089 0.701332 0.675619 0.676089 0.64628 0.675619 0.645872 0.675619 0.645872 0.675151 0.645463 0.701332 0.675619 0.700806 0.675151 0.689882 0.690193 0.665006 0.6653 0.690193 0.690512 0.6653 0.665603 0.6653 0.665603 0.636472 0.636753 0.665006 0.6653 0.636199 0.636472 0.752949 0.752719 0.753734 0.753538 0.74815 0.747894 0.752949 0.752719 0.747894 0.747647 0.752719 0.752496 0.752719 0.752496 0.753538 0.753348 0.605072 0.707952 0.589276 0.693386 0.620385 0.721946 0.605072 0.707952 0.721946 0.822912 0.707952 0.810902 0.707952 0.810902 0.693386 0.798263 0.748212 0.749765 0.748281 0.749822 0.742838 0.748212 0.742916 0.748281 0.742762 0.748146 0.742838 0.748212 0.748146 0.74971 0.748212 0.749765 0.964151 0.960261 0.982741 0.976988 0.967835 0.964151 0.988362 0.982741 0.935998 0.934327 0.967835 0.964151 0.934327 0.932387 0.964151 0.960261 0.80353 0.873313 0.796848 0.868765 0.809722 0.877369 0.80353 0.873313 0.877369 0.937102 0.873313 0.935392 0.873313 0.935392 0.868765 0.933206 0.635213 0.735368 0.620385 0.721946 0.649552 0.748219 0.635213 0.735368 0.748219 0.845056 0.735368 0.834295 0.735368 0.834295 0.721946 0.822912 0.842928 0.845243 0.893927 0.894276 0.845243 0.847203 0.894276 0.894307 0.894276 0.894307 0.934327 0.932387 0.893927 0.894276 0.935998 0.934327 0.755847 0.838213 0.746099 0.830476 0.765075 0.845398 0.755847 0.838213 0.845398 0.919375 0.838213 0.914574 0.838213 0.914574 0.830476 0.909211 0.919412 0.938507 0.922374 0.943094 0.916305 0.933841 0.919412 0.938507 0.933841 0.940899 0.938507 0.946998 0.938507 0.946998 0.943094 0.953089 0.73583 0.822181 0.725043 0.813323 0.746099 0.830476 0.73583 0.822181 0.830476 0.909211 0.822181 0.903275 0.822181 0.903275 0.813323 0.896757 0.84024 0.89324 0.837164 0.892194 0.842928 0.893927 0.84024 0.89324 0.893927 0.935998 0.89324 0.93738 0.89324 0.93738 0.892194 0.938449 0.815432 0.880945 0.809722 0.877369 0.820671 0.884057 0.815432 0.880945 0.884057 0.93917 0.880945 0.938356 0.880945 0.938356 0.877369 0.937102 1.43608 1.44421 1.42166 1.42805 1.42756 1.43608 1.41502 1.42166 1.41189 1.42209 1.42756 1.43608 1.42209 1.43182 1.43608 1.44421 0.789668 0.86371 0.781982 0.858137 0.796848 0.868765 0.789668 0.86371 0.868765 0.933206 0.86371 0.930526 0.86371 0.930526 0.858137 0.927338 0.693552 0.736133 0.689349 0.731663 0.689349 0.731663 0.685386 0.727425 0.642487 0.689349 0.638897 0.685386 0.64632 0.693552 0.642487 0.689349 0.532648 0.532377 0.573774 0.57346 0.487816 0.487582 0.532648 0.532377 0.487582 0.487345 0.532377 0.532102 0.532377 0.532102 0.57346 0.573145 1.36259 1.43754 1.36257 1.43753 1.25769 1.36259 1.25767 1.36257 1.25771 1.36261 1.25769 1.36259 1.36261 1.43756 1.36259 1.43754 0.523978 0.525408 0.568372 0.569601 0.522417 0.523978 0.567025 0.568372 0.475346 0.477034 0.522417 0.523978 0.477034 0.478584 0.523978 0.525408 0.627091 0.627033 0.655393 0.655345 0.655393 0.655345 0.680008 0.679972 0.655439 0.655393 0.680043 0.680008 0.627147 0.627091 0.655439 0.655393 0.635933 0.603268 0.635674 0.603033 0.636199 0.60351 0.635933 0.603268 0.60351 0.566991 0.603268 0.566775 0.603268 0.566775 0.603033 0.566566 0.762972 0.958056 0.762989 0.958003 0.538074 0.762972 0.538215 0.762989 0.537991 0.763086 0.538074 0.762972 0.763086 0.9582 0.762972 0.958056 1.04947 1.05983 1.05446 1.06279 1.03903 1.04947 1.04595 1.05446 1.01797 1.03003 1.03903 1.04947 1.03003 1.0421 1.04947 1.05983 0.438241 0.438787 0.487416 0.48794 0.437617 0.438241 0.486816 0.487416 0.385272 0.385874 0.437617 0.438241 0.385874 0.386402 0.438241 0.438787 0.521276 0.560576 0.521302 0.560602 0.478259 0.521276 0.478284 0.521302 0.478233 0.52125 0.478259 0.521276 0.52125 0.56055 0.521276 0.560576 0.877323 0.881819 0.880977 0.886369 0.87369 0.877342 0.877323 0.881819 0.877342 0.872204 0.881819 0.877383 0.881819 0.877383 0.886369 0.882687 0.743297 0.742762 0.766061 0.76515 0.743806 0.743297 0.766967 0.766061 0.715944 0.71585 0.743806 0.743297 0.71585 0.71571 0.743297 0.742762 0.641071 0.641451 0.607942 0.608284 0.607942 0.608284 0.570956 0.571262 0.607604 0.607942 0.570655 0.570956 0.640698 0.641071 0.607604 0.607942 0.477268 0.477203 0.520269 0.520203 0.520269 0.520203 0.559591 0.559526 0.520333 0.520269 0.559653 0.559591 0.477331 0.477268 0.520333 0.520269 0.74147 0.741134 0.750187 0.749867 0.741817 0.74147 0.750516 0.750187 0.72901 0.728658 0.741817 0.74147 0.728658 0.728316 0.74147 0.741134 0.698749 0.757005 0.68989 0.7478 0.635501 0.698749 0.6272 0.68989 0.644194 0.70799 0.635501 0.698749 0.70799 0.766571 0.698749 0.757005 0.813095 0.916189 0.796012 0.89852 0.700808 0.813095 0.684922 0.796012 0.716925 0.830356 0.700808 0.813095 0.830356 0.933962 0.813095 0.916189 0.964138 0.978624 1.00993 1.02342 0.978624 0.993245 1.02342 1.03694 1.02342 1.03694 1.05415 1.06615 1.00993 1.02342 1.0421 1.05415 1.24415 1.25944 1.30251 1.3161 1.22856 1.24415 1.28859 1.30251 1.14587 1.16262 1.22856 1.24415 1.16262 1.17911 1.24415 1.25944 0.433656 0.433576 0.48108 0.480979 0.382565 0.382505 0.433656 0.433576 0.382505 0.382449 0.433576 0.4335 0.433576 0.4335 0.480979 0.480882 0.437892 0.437689 0.486146 0.4