# vtk DataFile Version 3.0
#This file was generated by the deal.II library on 2020/11/19 at 14:35:40
ASCII
DATASET UNSTRUCTURED_GRID

POINTS 16136 double
0.01 0.03 0
0.01 0.02 0
0.02 0.03 0
0.02 0.02 0
0.01 0.04 0
0.01 0.03 0
0.02 0.04 0
0.02 0.03 0
0 0.04 0
0 0.03 0
0.01 0.04 0
0.01 0.03 0
0 0.03 0
0 0.02 0
0.01 0.03 0
0.01 0.02 0
0.87 0.07 0
0.88 0.07 0
0.87 0.08 0
0.88 0.08 0
0.86 0.07 0
0.87 0.07 0
0.86 0.08 0
0.87 0.08 0
0.86 0.06 0
0.87 0.06 0
0.86 0.07 0
0.87 0.07 0
0.87 0.06 0
0.88 0.06 0
0.87 0.07 0
0.88 0.07 0
0.07 0.07 0
0.08 0.07 0
0.07 0.08 0
0.08 0.08 0
0.06 0.07 0
0.07 0.07 0
0.06 0.08 0
0.07 0.08 0
0.06 0.06 0
0.07 0.06 0
0.06 0.07 0
0.07 0.07 0
0.07 0.06 0
0.08 0.06 0
0.07 0.07 0
0.08 0.07 0
0.03 0.05 0
0.02 0.05 0
0.03 0.04 0
0.02 0.04 0
0.04 0.05 0
0.03 0.05 0
0.04 0.04 0
0.03 0.04 0
0.04 0.06 0
0.03 0.06 0
0.04 0.05 0
0.03 0.05 0
0.03 0.06 0
0.02 0.06 0
0.03 0.05 0
0.02 0.05 0
0.09 0.09 0
0.1 0.09 0
0.09 0.1 0
0.1 0.1 0
0.08 0.09 0
0.09 0.09 0
0.08 0.1 0
0.09 0.1 0
0.08 0.08 0
0.09 0.08 0
0.08 0.09 0
0.09 0.09 0
0.09 0.08 0
0.1 0.08 0
0.09 0.09 0
0.1 0.09 0
0.05 0.15 0
0.05 0.14 0
0.06 0.15 0
0.06 0.14 0
0.05 0.16 0
0.05 0.15 0
0.06 0.16 0
0.06 0.15 0
0.04 0.16 0
0.04 0.15 0
0.05 0.16 0
0.05 0.15 0
0.04 0.15 0
0.04 0.14 0
0.05 0.15 0
0.05 0.14 0
0.11 0.08 0
0.11 0.09 0
0.1 0.08 0
0.1 0.09 0
0.12 0.08 0
0.12 0.09 0
0.11 0.08 0
0.11 0.09 0
0.12 0.09 0
0.12 0.1 0
0.11 0.09 0
0.11 0.1 0
0.11 0.09 0
0.11 0.1 0
0.1 0.09 0
0.1 0.1 0
0.13 0.09 0
0.14 0.09 0
0.13 0.1 0
0.14 0.1 0
0.12 0.09 0
0.13 0.09 0
0.12 0.1 0
0.13 0.1 0
0.12 0.08 0
0.13 0.08 0
0.12 0.09 0
0.13 0.09 0
0.13 0.08 0
0.14 0.08 0
0.13 0.09 0
0.14 0.09 0
0.09 0.16 0
0.09 0.15 0
0.1 0.16 0
0.1 0.15 0
0.08 0.16 0
0.08 0.15 0
0.09 0.16 0
0.09 0.15 0
0.08 0.15 0
0.08 0.14 0
0.09 0.15 0
0.09 0.14 0
0.09 0.15 0
0.09 0.14 0
0.1 0.15 0
0.1 0.14 0
0.59 0.11 0
0.58 0.11 0
0.59 0.1 0
0.58 0.1 0
0.6 0.11 0
0.59 0.11 0
0.6 0.1 0
0.59 0.1 0
0.6 0.12 0
0.59 0.12 0
0.6 0.11 0
0.59 0.11 0
0.59 0.12 0
0.58 0.12 0
0.59 0.11 0
0.58 0.11 0
0.57 0.12 0
0.57 0.11 0
0.58 0.12 0
0.58 0.11 0
0.56 0.12 0
0.56 0.11 0
0.57 0.12 0
0.57 0.11 0
0.56 0.11 0
0.56 0.1 0
0.57 0.11 0
0.57 0.1 0
0.57 0.11 0
0.57 0.1 0
0.58 0.11 0
0.58 0.1 0
0.39 0.11 0
0.38 0.11 0
0.39 0.1 0
0.38 0.1 0
0.4 0.11 0
0.39 0.11 0
0.4 0.1 0
0.39 0.1 0
0.4 0.12 0
0.39 0.12 0
0.4 0.11 0
0.39 0.11 0
0.39 0.12 0
0.38 0.12 0
0.39 0.11 0
0.38 0.11 0
0.75 0.09 0
0.76 0.09 0
0.75 0.1 0
0.76 0.1 0
0.74 0.09 0
0.75 0.09 0
0.74 0.1 0
0.75 0.1 0
0.74 0.08 0
0.75 0.08 0
0.74 0.09 0
0.75 0.09 0
0.75 0.08 0
0.76 0.08 0
0.75 0.09 0
0.76 0.09 0
0.55 0.12 0
0.55 0.11 0
0.56 0.12 0
0.56 0.11 0
0.54 0.12 0
0.54 0.11 0
0.55 0.12 0
0.55 0.11 0
0.54 0.11 0
0.54 0.1 0
0.55 0.11 0
0.55 0.1 0
0.55 0.11 0
0.55 0.1 0
0.56 0.11 0
0.56 0.1 0
0.37 0.11 0
0.36 0.11 0
0.37 0.1 0
0.36 0.1 0
0.38 0.11 0
0.37 0.11 0
0.38 0.1 0
0.37 0.1 0
0.38 0.12 0
0.37 0.12 0
0.38 0.11 0
0.37 0.11 0
0.37 0.12 0
0.36 0.12 0
0.37 0.11 0
0.36 0.11 0
0.33 0.12 0
0.33 0.11 0
0.34 0.12 0
0.34 0.11 0
0.32 0.12 0
0.32 0.11 0
0.33 0.12 0
0.33 0.11 0
0.32 0.11 0
0.32 0.1 0
0.33 0.11 0
0.33 0.1 0
0.33 0.11 0
0.33 0.1 0
0.34 0.11 0
0.34 0.1 0
0.19 0.09 0
0.2 0.09 0
0.19 0.1 0
0.2 0.1 0
0.18 0.09 0
0.19 0.09 0
0.18 0.1 0
0.19 0.1 0
0.18 0.08 0
0.19 0.08 0
0.18 0.09 0
0.19 0.09 0
0.19 0.08 0
0.2 0.08 0
0.19 0.09 0
0.2 0.09 0
0.21 0.09 0
0.22 0.09 0
0.21 0.1 0
0.22 0.1 0
0.2 0.09 0
0.21 0.09 0
0.2 0.1 0
0.21 0.1 0
0.2 0.08 0
0.21 0.08 0
0.2 0.09 0
0.21 0.09 0
0.21 0.08 0
0.22 0.08 0
0.21 0.09 0
0.22 0.09 0
0.35 0.13 0
0.34 0.13 0
0.35 0.12 0
0.34 0.12 0
0.36 0.13 0
0.35 0.13 0
0.36 0.12 0
0.35 0.12 0
0.36 0.14 0
0.35 0.14 0
0.36 0.13 0
0.35 0.13 0
0.35 0.14 0
0.34 0.14 0
0.35 0.13 0
0.34 0.13 0
0.04 0.19 0
0.03 0.19 0
0.04 0.18 0
0.03 0.18 0
0.04 0.2 0
0.03 0.2 0
0.04 0.19 0
0.03 0.19 0
0.03 0.2 0
0.02 0.2 0
0.03 0.19 0
0.02 0.19 0
0.03 0.19 0
0.02 0.19 0
0.03 0.18 0
0.02 0.18 0
0.15 0.08 0
0.15 0.09 0
0.14 0.08 0
0.14 0.09 0
0.16 0.08 0
0.16 0.09 0
0.15 0.08 0
0.15 0.09 0
0.16 0.09 0
0.16 0.1 0
0.15 0.09 0
0.15 0.1 0
0.15 0.09 0
0.15 0.1 0
0.14 0.09 0
0.14 0.1 0
0.91 0.08 0
0.92 0.08 0
0.91 0.09 0
0.92 0.09 0
0.91 0.09 0
0.92 0.09 0
0.91 0.1 0
0.92 0.1 0
0.9 0.09 0
0.91 0.09 0
0.9 0.1 0
0.91 0.1 0
0.9 0.08 0
0.91 0.08 0
0.9 0.09 0
0.91 0.09 0
0.23 0.11 0
0.22 0.11 0
0.23 0.1 0
0.22 0.1 0
0.24 0.11 0
0.23 0.11 0
0.24 0.1 0
0.23 0.1 0
0.24 0.12 0
0.23 0.12 0
0.24 0.11 0
0.23 0.11 0
0.23 0.12 0
0.22 0.12 0
0.23 0.11 0
0.22 0.11 0
0.24 0.09 0
0.24 0.1 0
0.23 0.09 0
0.23 0.1 0
0.23 0.09 0
0.23 0.1 0
0.22 0.09 0
0.22 0.1 0
0.23 0.08 0
0.23 0.09 0
0.22 0.08 0
0.22 0.09 0
0.24 0.08 0
0.24 0.09 0
0.23 0.08 0
0.23 0.09 0
0.25 0.12 0
0.25 0.11 0
0.26 0.12 0
0.26 0.11 0
0.24 0.12 0
0.24 0.11 0
0.25 0.12 0
0.25 0.11 0
0.24 0.11 0
0.24 0.1 0
0.25 0.11 0
0.25 0.1 0
0.25 0.11 0
0.25 0.1 0
0.26 0.11 0
0.26 0.1 0
0.17 0.08 0
0.17 0.09 0
0.16 0.08 0
0.16 0.09 0
0.18 0.08 0
0.18 0.09 0
0.17 0.08 0
0.17 0.09 0
0.18 0.09 0
0.18 0.1 0
0.17 0.09 0
0.17 0.1 0
0.17 0.09 0
0.17 0.1 0
0.16 0.09 0
0.16 0.1 0
0.61 0.11 0
0.6 0.11 0
0.61 0.1 0
0.6 0.1 0
0.62 0.11 0
0.61 0.11 0
0.62 0.1 0
0.61 0.1 0
0.62 0.12 0
0.61 0.12 0
0.62 0.11 0
0.61 0.11 0
0.61 0.12 0
0.6 0.12 0
0.61 0.11 0
0.6 0.11 0
0.35 0.15 0
0.34 0.15 0
0.35 0.14 0
0.34 0.14 0
0.36 0.15 0
0.35 0.15 0
0.36 0.14 0
0.35 0.14 0
0.53 0.12 0
0.53 0.11 0
0.54 0.12 0
0.54 0.11 0
0.52 0.12 0
0.52 0.11 0
0.53 0.12 0
0.53 0.11 0
0.52 0.11 0
0.52 0.1 0
0.53 0.11 0
0.53 0.1 0
0.53 0.11 0
0.53 0.1 0
0.54 0.11 0
0.54 0.1 0
0.43 0.11 0
0.43 0.1 0
0.44 0.11 0
0.44 0.1 0
0.43 0.12 0
0.43 0.11 0
0.44 0.12 0
0.44 0.11 0
0.42 0.12 0
0.42 0.11 0
0.43 0.12 0
0.43 0.11 0
0.42 0.11 0
0.42 0.1 0
0.43 0.11 0
0.43 0.1 0
0.41 0.08 0
0.41 0.09 0
0.4 0.08 0
0.4 0.09 0
0.42 0.08 0
0.42 0.09 0
0.41 0.08 0
0.41 0.09 0
0.42 0.09 0
0.42 0.1 0
0.41 0.09 0
0.41 0.1 0
0.41 0.09 0
0.41 0.1 0
0.4 0.09 0
0.4 0.1 0
0.31 0.11 0
0.3 0.11 0
0.31 0.1 0
0.3 0.1 0
0.32 0.11 0
0.31 0.11 0
0.32 0.1 0
0.31 0.1 0
0.32 0.12 0
0.31 0.12 0
0.32 0.11 0
0.31 0.11 0
0.31 0.12 0
0.3 0.12 0
0.31 0.11 0
0.3 0.11 0
0.43 0.09 0
0.44 0.09 0
0.43 0.1 0
0.44 0.1 0
0.42 0.09 0
0.43 0.09 0
0.42 0.1 0
0.43 0.1 0
0.42 0.08 0
0.43 0.08 0
0.42 0.09 0
0.43 0.09 0
0.43 0.08 0
0.44 0.08 0
0.43 0.09 0
0.44 0.09 0
0.81 0.09 0
0.82 0.09 0
0.81 0.1 0
0.82 0.1 0
0.8 0.09 0
0.81 0.09 0
0.8 0.1 0
0.81 0.1 0
0.8 0.08 0
0.81 0.08 0
0.8 0.09 0
0.81 0.09 0
0.81 0.08 0
0.82 0.08 0
0.81 0.09 0
0.82 0.09 0
0.77 0.09 0
0.78 0.09 0
0.77 0.1 0
0.78 0.1 0
0.76 0.09 0
0.77 0.09 0
0.76 0.1 0
0.77 0.1 0
0.76 0.08 0
0.77 0.08 0
0.76 0.09 0
0.77 0.09 0
0.77 0.08 0
0.78 0.08 0
0.77 0.09 0
0.78 0.09 0
0.86 0.08 0
0.87 0.08 0
0.86 0.09 0
0.87 0.09 0
0.87 0.08 0
0.88 0.08 0
0.87 0.09 0
0.88 0.09 0
0.87 0.09 0
0.88 0.09 0
0.87 0.1 0
0.88 0.1 0
0.86 0.09 0
0.87 0.09 0
0.86 0.1 0
0.87 0.1 0
0.89 0.08 0
0.9 0.08 0
0.89 0.09 0
0.9 0.09 0
0.89 0.09 0
0.9 0.09 0
0.89 0.1 0
0.9 0.1 0
0.88 0.09 0
0.89 0.09 0
0.88 0.1 0
0.89 0.1 0
0.88 0.08 0
0.89 0.08 0
0.88 0.09 0
0.89 0.09 0
0.29 0.11 0
0.28 0.11 0
0.29 0.1 0
0.28 0.1 0
0.3 0.11 0
0.29 0.11 0
0.3 0.1 0
0.29 0.1 0
0.3 0.12 0
0.29 0.12 0
0.3 0.11 0
0.29 0.11 0
0.29 0.12 0
0.28 0.12 0
0.29 0.11 0
0.28 0.11 0
0.83 0.08 0
0.83 0.09 0
0.82 0.08 0
0.82 0.09 0
0.84 0.08 0
0.84 0.09 0
0.83 0.08 0
0.83 0.09 0
0.84 0.09 0
0.84 0.1 0
0.83 0.09 0
0.83 0.1 0
0.83 0.09 0
0.83 0.1 0
0.82 0.09 0
0.82 0.1 0
0.25 0.13 0
0.25 0.12 0
0.26 0.13 0
0.26 0.12 0
0.25 0.14 0
0.25 0.13 0
0.26 0.14 0
0.26 0.13 0
0.24 0.14 0
0.24 0.13 0
0.25 0.14 0
0.25 0.13 0
0.24 0.13 0
0.24 0.12 0
0.25 0.13 0
0.25 0.12 0
0.47 0.08 0
0.47 0.09 0
0.46 0.08 0
0.46 0.09 0
0.48 0.08 0
0.48 0.09 0
0.47 0.08 0
0.47 0.09 0
0.48 0.09 0
0.48 0.1 0
0.47 0.09 0
0.47 0.1 0
0.47 0.09 0
0.47 0.1 0
0.46 0.09 0
0.46 0.1 0
0.79 0.09 0
0.8 0.09 0
0.79 0.1 0
0.8 0.1 0
0.78 0.09 0
0.79 0.09 0
0.78 0.1 0
0.79 0.1 0
0.78 0.08 0
0.79 0.08 0
0.78 0.09 0
0.79 0.09 0
0.79 0.08 0
0.8 0.08 0
0.79 0.09 0
0.8 0.09 0
0.63 0.11 0
0.62 0.11 0
0.63 0.1 0
0.62 0.1 0
0.64 0.11 0
0.63 0.11 0
0.64 0.1 0
0.63 0.1 0
0.64 0.12 0
0.63 0.12 0
0.64 0.11 0
0.63 0.11 0
0.63 0.12 0
0.62 0.12 0
0.63 0.11 0
0.62 0.11 0
0.27 0.11 0
0.26 0.11 0
0.27 0.1 0
0.26 0.1 0
0.28 0.11 0
0.27 0.11 0
0.28 0.1 0
0.27 0.1 0
0.28 0.12 0
0.27 0.12 0
0.28 0.11 0
0.27 0.11 0
0.27 0.12 0
0.26 0.12 0
0.27 0.11 0
0.26 0.11 0
0.73 0.12 0
0.73 0.11 0
0.74 0.12 0
0.74 0.11 0
0.72 0.12 0
0.72 0.11 0
0.73 0.12 0
0.73 0.11 0
0.72 0.11 0
0.72 0.1 0
0.73 0.11 0
0.73 0.1 0
0.73 0.11 0
0.73 0.1 0
0.74 0.11 0
0.74 0.1 0
0.45 0.08 0
0.45 0.09 0
0.44 0.08 0
0.44 0.09 0
0.46 0.08 0
0.46 0.09 0
0.45 0.08 0
0.45 0.09 0
0.46 0.09 0
0.46 0.1 0
0.45 0.09 0
0.45 0.1 0
0.45 0.09 0
0.45 0.1 0
0.44 0.09 0
0.44 0.1 0
0.85 0.09 0
0.86 0.09 0
0.85 0.1 0
0.86 0.1 0
0.84 0.09 0
0.85 0.09 0
0.84 0.1 0
0.85 0.1 0
0.84 0.08 0
0.85 0.08 0
0.84 0.09 0
0.85 0.09 0
0.85 0.08 0
0.86 0.08 0
0.85 0.09 0
0.86 0.09 0
0.51 0.08 0
0.52 0.08 0
0.51 0.09 0
0.52 0.09 0
0.51 0.09 0
0.52 0.09 0
0.51 0.1 0
0.52 0.1 0
0.5 0.09 0
0.51 0.09 0
0.5 0.1 0
0.51 0.1 0
0.5 0.08 0
0.51 0.08 0
0.5 0.09 0
0.51 0.09 0
0.49 0.12 0
0.49 0.11 0
0.5 0.12 0
0.5 0.11 0
0.48 0.12 0
0.48 0.11 0
0.49 0.12 0
0.49 0.11 0
0.48 0.11 0
0.48 0.1 0
0.49 0.11 0
0.49 0.1 0
0.49 0.11 0
0.49 0.1 0
0.5 0.11 0
0.5 0.1 0
0.77 0.06 0
0.77 0.05 0
0.78 0.06 0
0.78 0.05 0
0.76 0.06 0
0.76 0.05 0
0.77 0.06 0
0.77 0.05 0
0.69 0.08 0
0.69 0.09 0
0.68 0.08 0
0.68 0.09 0
0.7 0.08 0
0.7 0.09 0
0.69 0.08 0
0.69 0.09 0
0.7 0.09 0
0.7 0.1 0
0.69 0.09 0
0.69 0.1 0
0.69 0.09 0
0.69 0.1 0
0.68 0.09 0
0.68 0.1 0
0.48 0.08 0
0.49 0.08 0
0.48 0.09 0
0.49 0.09 0
0.49 0.08 0
0.5 0.08 0
0.49 0.09 0
0.5 0.09 0
0.49 0.09 0
0.5 0.09 0
0.49 0.1 0
0.5 0.1 0
0.48 0.09 0
0.49 0.09 0
0.48 0.1 0
0.49 0.1 0
0.46 0.15 0
0.45 0.15 0
0.46 0.14 0
0.45 0.14 0
0.45 0.15 0
0.44 0.15 0
0.45 0.14 0
0.44 0.14 0
0.04 0.17 0
0.04 0.16 0
0.05 0.17 0
0.05 0.16 0
0.05 0.17 0
0.05 0.16 0
0.06 0.17 0
0.06 0.16 0
0.05 0.18 0
0.05 0.17 0
0.06 0.18 0
0.06 0.17 0
0.04 0.18 0
0.04 0.17 0
0.05 0.18 0
0.05 0.17 0
0.97 0.17 0
[...]
POINT_DATA 16136
SCALARS solution_0 double 1
LOOKUP_TABLE default
0.999991 0.999988 0.99996 0.999945 0.999995 0.999991 0.999979 0.99996 1 1 0.999995 0.999991 1 1 0.999991 0.999988 1.32917 1.33 1.36667 1.36819 1.32831 1.32917 1.36511 1.36667 1.26462 1.26465 1.32831 1.32917 1.26465 1.26467 1.32917 1.33 1.00071 1.00104 1.00096 1.0014 1.00047 1.00071 1.00064 1.00096 1.00026 1.00038 1.00047 1.00071 1.00038 1.00057 1.00071 1.00104 1 1 0.999951 0.999979 1 1 0.99991 0.999951 1.0001 1.00005 1 1 1.00005 1.00002 1 1 1.00233 1.00327 1.00244 1.00342 1.00163 1.00233 1.00171 1.00244 1.0014 1.002 1.00163 1.00233 1.002 1.00282 1.00233 1.00327 1 1.00016 1.00001 1.00026 0.999845 1 0.999765 1.00001 0.99991 1 0.999845 1 1 1.0001 1 1.00016 1.00393 1.00453 1.00282 1.00327 1.00544 1.00623 1.00393 1.00453 1.00623 1.00649 1.00453 1.00474 1.00453 1.00474 1.00327 1.00342 1.00848 1.01143 1.00882 1.01186 1.00623 1.00848 1.00649 1.00882 1.00544 1.00746 1.00623 1.00848 1.00746 1.01017 1.00848 1.01143 0.999283 1.00007 0.999008 1.00012 0.999489 1.00003 0.999283 1.00007 1.00003 1.00057 1.00007 1.00083 1.00007 1.00083 1.00012 1.00119 1.31023 1.30669 1.31128 1.30762 1.31369 1.31023 1.31487 1.31128 1.30844 1.30542 1.31369 1.31023 1.30542 1.30232 1.31023 1.30669 1.29913 1.30308 1.30232 1.30669 1.29585 1.2994 1.29913 1.30308 1.2994 1.30011 1.30308 1.3039 1.30308 1.3039 1.30669 1.30762 1.2225 1.21676 1.22238 1.21663 1.22803 1.2225 1.22792 1.22238 1.22825 1.22279 1.22803 1.2225 1.22279 1.21712 1.2225 1.21676 1.35814 1.36065 1.36165 1.36433 1.35557 1.35814 1.35891 1.36165 1.34336 1.34541 1.35557 1.35814 1.34541 1.34742 1.35814 1.36065 1.29248 1.29564 1.29585 1.2994 1.28901 1.2918 1.29248 1.29564 1.2918 1.29232 1.29564 1.29625 1.29564 1.29625 1.2994 1.30011 1.21081 1.20461 1.21067 1.20445 1.21676 1.21081 1.21663 1.21067 1.21712 1.21123 1.21676 1.21081 1.21123 1.20508 1.21081 1.20461 1.18485 1.18421 1.19193 1.19135 1.17739 1.17669 1.18485 1.18421 1.17669 1.17645 1.18421 1.184 1.18421 1.184 1.19135 1.19116 1.04224 1.05209 1.0428 1.05255 1.03358 1.04224 1.03419 1.0428 1.03167 1.04049 1.03358 1.04224 1.04049 1.05068 1.04224 1.05209 1.06292 1.07441 1.06323 1.07457 1.05209 1.06292 1.05255 1.06323 1.05068 1.06196 1.05209 1.06292 1.06196 1.07395 1.06292 1.07441 1.1994 1.19285 1.19866 1.19193 1.20562 1.1994 1.20508 1.19866 1.20402 1.19865 1.20562 1.1994 1.19865 1.19283 1.1994 1.19285 0.999712 0.999846 0.999756 0.999869 0.999696 0.999838 0.999712 0.999846 0.999838 0.999932 0.999846 0.999935 0.999846 0.999935 0.999869 0.999945 1.01374 1.01526 1.01017 1.01143 1.01839 1.02014 1.01374 1.01526 1.02014 1.02071 1.01526 1.01577 1.01526 1.01577 1.01143 1.01186 1.37255 1.37393 1.39299 1.39482 1.39299 1.39482 1.39915 1.40113 1.39113 1.39299 1.39713 1.39915 1.37113 1.37255 1.39113 1.39299 1.08624 1.07441 1.08625 1.07457 1.0981 1.08624 1.09798 1.08625 1.09848 1.08625 1.0981 1.08624 1.08625 1.07395 1.08624 1.07441 1.0981 1.09798 1.08624 1.08625 1.08624 1.08625 1.07441 1.07457 1.08625 1.08624 1.07395 1.07441 1.09848 1.0981 1.08625 1.08624 1.11038 1.10972 1.12176 1.12093 1.09848 1.0981 1.11038 1.10972 1.0981 1.09798 1.10972 1.10951 1.10972 1.10951 1.12093 1.12067 1.02431 1.02621 1.01839 1.02014 1.03167 1.03358 1.02431 1.02621 1.03358 1.03419 1.02621 1.02683 1.02621 1.02683 1.02014 1.02071 1.31709 1.31369 1.3184 1.31487 1.32042 1.31709 1.32187 1.3184 1.31425 1.31138 1.32042 1.31709 1.31138 1.30844 1.31709 1.31369 1.18807 1.18476 1.19865 1.19283 1.1908 1.18807 1.20402 1.19865 1.28545 1.28789 1.28901 1.2918 1.28178 1.28389 1.28545 1.28789 1.28389 1.28424 1.28789 1.28831 1.28789 1.28831 1.2918 1.29232 1.24363 1.24357 1.24855 1.24851 1.24354 1.24363 1.24832 1.24855 1.23861 1.23859 1.24354 1.24363 1.23859 1.23851 1.24363 1.24357 1.23352 1.23339 1.22825 1.22803 1.23861 1.23859 1.23352 1.23339 1.23859 1.23851 1.23339 1.2333 1.23339 1.2333 1.22803 1.22792 1.16872 1.16027 1.16847 1.15999 1.17669 1.16872 1.17645 1.16847 1.17739 1.16949 1.17669 1.16872 1.16949 1.1611 1.16872 1.16027 1.24363 1.24855 1.24357 1.24851 1.23859 1.24363 1.23851 1.24357 1.23861 1.24354 1.23859 1.24363 1.24354 1.24832 1.24363 1.24855 1.37251 1.37475 1.37704 1.37945 1.37023 1.37251 1.37459 1.37704 1.35497 1.35676 1.37023 1.37251 1.35676 1.3585 1.37251 1.37475 1.36312 1.36553 1.36697 1.36956 1.36065 1.36312 1.36433 1.36697 1.34742 1.34937 1.36065 1.36312 1.34937 1.35128 1.36312 1.36553 1.36511 1.36667 1.38327 1.3853 1.36667 1.36819 1.3853 1.38728 1.3853 1.38728 1.39082 1.39297 1.38327 1.3853 1.38863 1.39082 1.36968 1.37113 1.38923 1.39113 1.38923 1.39113 1.39507 1.39713 1.38728 1.38923 1.39297 1.39507 1.36819 1.36968 1.38728 1.38923 1.15129 1.14175 1.151 1.14145 1.16027 1.15129 1.15999 1.151 1.1611 1.15217 1.16027 1.15129 1.15217 1.14266 1.15129 1.14175 1.36021 1.37694 1.3585 1.37475 1.36188 1.37909 1.36021 1.37694 1.37909 1.38413 1.37694 1.38181 1.37694 1.38181 1.37475 1.37945 1.11158 1.11038 1.12321 1.12176 1.11353 1.11158 1.12547 1.12321 1.1006 1.09925 1.11353 1.11158 1.09925 1.09848 1.11158 1.11038 1.2618 1.26256 1.25744 1.25801 1.26603 1.26702 1.2618 1.26256 1.26702 1.26712 1.26256 1.26262 1.26256 1.26262 1.25801 1.25802 1.3679 1.37023 1.3721 1.37459 1.36553 1.3679 1.36956 1.3721 1.35128 1.35315 1.36553 1.3679 1.35315 1.35497 1.3679 1.37023 1.32368 1.32042 1.32527 1.32187 1.32688 1.32368 1.32862 1.32527 1.31975 1.31703 1.32688 1.32368 1.31703 1.31425 1.32368 1.32042 1.13163 1.12093 1.13134 1.12067 1.14175 1.13163 1.14145 1.13134 1.14266 1.13253 1.14175 1.13163 1.13253 1.12176 1.13163 1.12093 1.34126 1.35295 1.34336 1.35557 1.3391 1.35028 1.34126 1.35295 1.35028 1.35329 1.35295 1.35613 1.35295 1.35613 1.35557 1.35891 1.25295 1.25334 1.24832 1.24855 1.25744 1.25801 1.25295 1.25334 1.25801 1.25802 1.25334 1.25332 1.25334 1.25332 1.24855 1.24851 1.3812 1.38327 1.3864 1.38863 1.37909 1.3812 1.38413 1.3864 1.36188 1.36351 1.37909 1.3812 1.36351 1.36511 1.3812 1.38327 1.27801 1.28178 1.27981 1.28389 1.27981 1.28389 1.28008 1.28424 1.27564 1.27981 1.27584 1.28008 1.27413 1.27801 1.27564 1.27981 1.27014 1.27138 1.27413 1.27564 1.26603 1.26702 1.27014 1.27138 1.26702 1.26712 1.27138 1.27153 1.27138 1.27153 1.27564 1.27584 1.26395 1.17243 1.26406 1.17157 1.26382 1.17329 1.26395 1.17243 1.3323 1.34195 1.32992 1.33905 1.33463 1.34478 1.3323 1.34195 1.34478 1.34746 1.34195 1.34446 1.34195 1.34446 1.33905 1.3414 1.26603 1.27014 1.26702 1.27138 1.27014 1.27413 1.27138 1.27564 1.27138 1.27564 1.27153 1.27584 1.26702 1.27138 1.26712 1.27153 1.19865 1.19886 1.23945 1.23707 1.19886 1.19893 1.23707 1.23448 0.999824 0.99991 0.999701 0.999845 0.999701 0.999845 0.999538 0.999765 0.999585 0.999701 0.999357 0.999538 0.999756 0.999824 0.999585 0.999701 0.822425 1.01224 0.821225 1.01119 0.588878 0.822425 0.587928 0.821225 0.589792 0.823592 0.588878 0.822425 0.823592 1.01326 0.822425 1.01224 1.01326 1.15907 1.01224 1.15853 1.15907 1.26483 1.15853 1.26483 1.15853 1.26483 1.15798 1.26485 1.01224 1.15853 1.01119 1.15798 1.32239 1.33002 1.31975 1.32688 1.32497 1.33309 1.32239 1.33002 1.33309 1.33513 1.33002 1.3319 1.33002 1.3319 1.32688 1.32862 1.002 1.00233 1.00282 1.00327 1.0014 1.00163 1.002 1.00233 1.00163 1.00171 1.00233 1.00244 1.00233 1.00244 1.00327 1.00342 0.99822 0.998312 0.997434 0.99757 0.998312 0.998578 0.99757 0.997959 0.99757 0.997959 0.996535 0.997102 0.997434 0.99757 0.996337 0.996535 1.20508 1.19866 1.20461 1.19814 1.19866 1.19193 1.19814 1.19135 1.19814 1.19135 1.19796 1.19116 1.20461 1.19814 1.20445 1.19796 1.04817 1.0603 1.05068 1.06196 1.04431 1.05786 1.04817 1.0603 1.05786 1.0723 1.0603 1.07322 1.0603 1.07322 1.06196 1.07395 1.3361 1.33905 1.33829 1.3414 1.33309 1.3361 1.33513 1.33829 1.32497 1.32748 1.33309 1.3361 1.32748 1.32992 1.3361 1.33905 0.998985 0.999489 0.998554 0.999283 0.998554 0.999283 0.997963 0.999008 0.997959 0.998554 0.997102 0.997963 0.998578 0.998985 0.997959 0.998554 1.33689 1.34756 1.3391 1.35028 1.33463 1.34478 1.33689 1.34756 1.34478 1.34746 1.34756 1.3504 1.34756 1.3504 1.35028 1.35329 1.05454 1.05032 1.07144 1.07127 1.05786 1.05454 1.0723 1.07144 1.04431 1.03862 1.05786 1.05454 1.03862 1.03023 1.05454 1.05032 1.0158 1.16106 1.01466 1.1604 1.01703 1.16183 1.0158 1.16106 1.16183 1.2648 1.16106 1.26484 1.16106 1.26484 1.1604 1.26485 1.15958 1.0147 1.15907 1.01326 1.26487 1.15958 1.26483 1.15907 1.26485 1.1604 1.26487 1.15958 1.1604 1.01466 1.15958 1.0147 1.00025 1.00029 1.00013 1.00015 1.00029 1.0003 1.00015 1.00016 1.00015 1.00016 1.00006 1.00007 1.00013 1.00015 1.00006 1.00006 1.10298 1.08784 1.1006 1.08676 1.10671 1.09046 1.10298 1.08784 1.09046 1.07127 1.08784 1.07144 1.08784 1.07144 1.08676 1.0723 1.37917 1.40176 1.38041 1.4034 1.40176 1.40867 1.4034 1.41046 1.4034 1.41046 1.40502 1.41221 1.38041 1.4034 1.38163 1.40502 1.34126 1.34336 1.35295 1.35557 1.35295 1.35557 1.35613 1.35891 1.35028 1.35295 1.35329 1.35613 1.3391 1.34126 1.35028 1.35295 0.315291 0.314635 0.590591 0.589792 0.315862 0.315291 0.591855 0.590591 0 0 0.315862 0.315291 0 0 0.315291 0.314635 1.04553 1.05032 1.07287 1.07127 1.01756 1.03023 1.04553 1.05032 1.19866 1.19814 1.19193 1.19135 1.20508 1.20461 1.19866 1.19814 1.20461 1.20445 1.19814 1.19796 1.19814 1.19796 1.19135 1.19116 1.17081 1.16251 1.16949 1.1611 1.1786 1.17081 1.17739 1.16949 1.17978 1.17248 1.1786 1.17081 1.17248 1.16458 1.17081 1.16251 0.31284 0.58707 0.312919 0.587198 0 0.31284 0 0.312919 0 0.313483 0 0.31284 0.313483 0.587928 0.31284 0.58707 1.34478 1.34756 1.34746 1.3504 1.33463 1.33689 1.34478 1.34756 1.33689 1.3391 1.34756 1.35028 1.34756 1.35028 1.3504 1.35329 0.825175 0.591855 0.825214 0.590591 0.825214 0.590591 0.823592 0.589792 1.0147 0.825214 1.01326 0.823592 1.00245 1.00171 1.00043 1.00023 1.00171 1.00119 1.00023 1.00012 1.00023 1.00012 0.998663 0.999008 1.00043 1.00023 0.998239 0.998663 1.17739 1.18485 1.17669 1.18421 1.18485 1.19193 1.18421 1.19135 1.18421 1.19135 1.184 1.19116 1.17669 1.18421 1.17645 1.184 1.19534 1.2502 1.19455 1.25152 1.19455 1.25152 1.19373 1.25273 1.00029 1.00015 1.0003 1.00016 1.00025 1.00013 1.00029 1.00015 1.00013 1.00006 1.00015 1.00006 1.00015 1.00006 1.00016 1.00007 0.997755 0.994709 0.997285 0.992913 0.998239 0.996109 0.997755 0.994709 0.996109 0.9943 0.994709 0.992053 0.994709 0.992053 0.992913 0.988946 0.999026 0.999302 0.998578 0.998985 0.999357 0.999538 0.999026 0.999302 0.999538 0.999765 0.999302 0.999644 0.999302 0.999644 0.998985 0.999489 0.592835 0.826383 0.591855 0.825175 0.594421 0.828272 0.592835 0.826383 1.3365 1.38041 1.33715 1.38163 1.26483 1.3365 1.26485 1.33715 1.26483 1.33584 1.26483 1.3365 1.33584 1.37917 1.3365 1.38041 1.26485 1.33715 1.26495 1.33784 1.33715 1.38163 1.33784 1.38286 1.33784 1.38286 1.33893 1.38433 1.26495 1.33784 1.26561 1.33893 1 1.00002 1.00001 1.00004 1.00001 1.00004 1.00001 1.00006 1 1.00001 1 1.00001 1 1 1 1.00001 0.828272 0.594421 0.826383 0.592835 0.826383 0.592835 0.825175 0.591855 1.26047 1.25997 1.18442 1.18538 1.25997 1.25942 1.18538 1.18635 0 0 0.313483 0.31284 0 0 0.31284 0.312919 0.31284 0.312919 0.58707 0.587198 0.313483 0.31284 0.587928 0.58707 0.999307 0.997396 0.986689 0.988366 0.986689 0.988366 0.971474 0.978894 0.988014 0.986689 0.964462 0.971474 1.00434 0.999307 0.988014 0.986689 0.998847 0.999026 0.998312 0.998578 0.998784 0.998847 0.99822 0.998312 0.999198 0.999239 0.998784 0.998847 0.999239 0.999357 0.998847 0.999026 1.00623 1.00649 1.00848 1.00882 1.00848 1.00882 1.01143 1.01186 1.00746 1.00848 1.01017 1.01143 1.00544 1.00623 1.00746 1.00848 1.26134 1.30451 1.26172 1.30612 1.30451 1.32497 1.30612 1.32748 1.30612 1.32748 1.30768 1.32992 1.26172 1.30612 1.26206 1.30768 1.0001 1 1.00016 1 1 0.99991 1 0.999845 1 0.999845 1.00001 0.999765 1.00016 1 1.00026 1.00001 1.09346 1.07287 1.09046 1.07127 1.09046 1.07127 1.09346 1.07287 1.2472 1.24877 1.26765 1.27075 1.24877 1.2502 1.27075 1.27372 1.27075 1.27372 1.27801 1.28178 1.26765 1.27075 1.27413 1.27801 1.01119 1.15798 1.01034 1.15755 1.15798 1.26485 1.15755 1.26495 1.15755 1.26495 1.15781 1.26561 1.01034 1.15755 1.01034 1.15781 1.00016 1.00026 1.0003 1.00047 1.0003 1.00047 1.00041 1.00064 1.00018 1.0003 1.00025 1.00041 1.0001 1.00016 1.00018 1.0003 1.11662 1.11353 1.12881 1.12547 1.12007 1.11662 1.13063 1.12881 1.10671 1.10298 1.12007 1.11662 1.10298 1.1006 1.11662 1.11353 0.990726 0.992913 0.98467 0.988946 0.988366 0.990726 0.978894 0.98467 0.997396 0.997019 0.988366 0.990726 0.997019 0.997285 0.990726 0.992913 1.24164 1.25748 1.23945 1.25377 1.24365 1.26102 1.24164 1.25748 1.26102 1.26603 1.25748 1.2618 1.25748 1.2618 1.25377 1.25744 1.15958 1.26487 1.15907 1.26483 1.0147 1.15958 1.01326 1.15907 1.01466 1.1604 1.0147 1.15958 1.1604 1.26485 1.15958 1.26487 1 0.999995 1 0.999979 1 1 1.00002 1 1 1 1 1 1 1 1 0.999995 0.999511 0.999585 0.999239 0.999357 0.999485 0.999511 0.999198 0.999239 0.999696 0.999712 0.999485 0.999511 0.999712 0.999756 0.999511 0.999585 1.32266 1.32367 1.35497 1.35676 1.26425 1.26433 1.32266 1.32367 1.26433 1.2644 1.32367 1.32465 1.32367 1.32465 1.35676 1.3585 1.25816 1.25745 1.18827 1.18922 1.25745 1.25666 1.18922 1.19016 1.26172 1.18154 1.26206 1.18058 1.26134 1.18249 1.26172 1.18154 1.26465 1.16457 1.26467 1.16384 1.26462 1.1653 1.26465 1.16457 1.01116 1.01374 1.00806 1.01017 1.00749 1.01116 1.00514 1.00806 1.01096 1.01537 1.00749 1.01116 1.01537 1.01839 1.01116 1.01374 1.17068 1.16438 1.17248 1.16458 1.17613 1.17068 1.17978 1.17248 0.587928 0.821225 0.58707 0.820226 0.821225 1.01119 0.820226 1.01034 0.820226 1.01034 0.820186 1.01034 0.58707 0.820226 0.587198 0.820186 1.34937 1.36312 1.35128 1.36553 1.34742 1.36065 1.34937 1.36312 1.36065 1.36433 1.36312 1.36697 1.36312 1.36697 1.36553 1.36956 1.26265 1.31062 1.2629 1.31201 1.31062 1.33463 1.31201 1.33689 1.31201 1.33689 1.31336 1.3391 1.2629 1.31201 1.26313 1.31336 1.19726 1.1962 1.22171 1.21781 1.1962 1.19481 1.21781 1.21358 1.01544 1.00894 1.00434 0.999307 1.02308 1.016 1.01544 1.00894 1.016 1.01096 1.00894 1.005 1.00894 1.005 0.999307 0.997396 1.2325 1.22763 1.23352 1.22825 1.23716 1.2325 1.23861 1.23352 1.22862 1.22531 1.23716 1.2325 1.22531 1.22171 1.2325 1.22763 0 0 0.316429 0.315862 0.316429 0.315862 0.592835 0.591855 0.316885 0.316429 0.594421 0.592835 0 0 0.316885 0.316429 1.26351 1.26368 1.31592 1.31713 1.26368 1.26382 1.31713 1.31831 1.31713 1.31831 1.34541 1.34742 1.31592 1.31713 1.34336 1.34541 1.36188 1.36021 1.37909 1.37694 1.36021 1.3585 1.37694 1.37475 1.37694 1.37475 1.38181 1.37945 1.37909 1.37694 1.38413 1.38181 0.997279 0.965847 1.01756 0.994449 1.01434 0.997279 1.03023 1.01756 1.00434 0.988014 1.01434 0.997279 0.988014 0.964462 0.997279 0.965847 1.31466 1.31592 1.34126 1.34336 1.31336 1.31466 1.3391 1.34126 1.26313 1.26333 1.31336 1.31466 1.26333 1.26351 1.31466 1.31592 1.11662 1.12007 1.12881 1.13063 1.11353 1.11662 1.12547 1.12881 1.1006 1.10298 1.11353 1.11662 1.10298 1.10671 1.11662 1.12007 1.16183 1.01703 1.16106 1.0158 1.16106 1.0158 1.1604 1.01466 1.26484 1.16106 1.26485 1.1604 1.2648 1.16183 1.26484 1.16106 1.26452 1.26447 1.16678 1.16753 1.26447 1.2644 1.16753 1.16831 1.33463 1.3323 1.34478 1.34195 1.3323 1.32992 1.34195 1.33905 1.34195 1.33905 1.34446 1.3414 1.34478 1.34195 1.34746 1.34446 0.980122 0.98467 0.986117 0.988946 0.97841 0.980122 0.985084 0.986117 0.968029 0.971142 0.97841 0.980122 0.971142 0.978894 0.980122 0.98467 1.27929 1.28901 1.2819 1.29248 1.2819 1.29248 1.2844 1.29585 1.25385 1.2819 1.25487 1.2844 1.25273 1.27929 1.25385 1.2819 1.26265 1.26237 1.1787 1.17964 1.26237 1.26206 1.17964 1.18058 1.19674 1.2472 1.19607 1.24877 1.19607 1.24877 1.19534 1.2502 1.16438 1.15764 1.16458 1.15589 1.14854 1.1442 1.15764 1.14924 1.15764 1.14924 1.15589 1.14656 1.26472 1.16306 1.26458 1.16353 1.26467 1.16384 1.26472 1.16306 1.2558 1.28679 1.25666 1.28909 1.25487 1.2844 1.2558 1.28679 1.2844 1.29585 1.28679 1.29913 1.28679 1.29913 1.28909 1.30232 1.26395 1.31945 1.26406 1.32055 1.26382 1.31831 1.26395 1.31945 1.31831 1.34742 1.31945 1.34937 1.31945 1.34937 1.32055 1.35128 1.13858 1.13063 1.13965 1.12881 1.13965 1.12881 1.13645 1.12547 1.14924 1.13965 1.14656 1.13645 1.1442 1.13858 1.14924 1.13965 1.14266 1.14175 1.13253 1.13163 1.14175 1.14145 1.13163 1.13134 1.13163 1.13134 1.12093 1.12067 1.13253 1.13163 1.12176 1.12093 1.18538 1.18635 1.25997 1.25942 1.18442 1.18538 1.26047 1.25997 1.26452 1.32653 1.26447 1.3256 1.32653 1.36188 1.3256 1.36021 1.3256 1.36021 1.32465 1.3585 1.26447 1.3256 1.2644 1.32465 0.95721 0.971474 0.971142 0.978894 0.950839 0.95721 0.968029 0.971142 0.916236 0.934932 0.950839 0.95721 0.934932 0.964462 0.95721 0.971474 1.18593 1.18485 1.19285 1.19193 1.18656 1.18593 1.19283 1.19285 1.17978 1.1786 1.18656 1.18593 1.1786 1.17739 1.18593 1.18485 1.15853 1.01224 1.15798 1.01119 1.26483 1.15853 1.26485 1.15798 1.26483 1.15907 1.26483 1.15853 1.15907 1.01326 1.15853 1.01224 1.25152 1.27656 1.25273 1.27929 1.2502 1.27372 1.25152 1.27656 1.27372 1.28178 1.27656 1.28545 1.27656 1.28545 1.27929 1.28901 1.00009 1.00013 1.00004 1.00006 1.00005 1.00009 1.00002 1.00004 1.0001 1.00018 1.00005 1.00009 1.00018 1.00025 1.00009 1.00013 1.31062 1.31201 1.33463 1.33689 1.26265 1.2629 1.31062 1.31201 1.2629 1.26313 1.31201 1.31336 1.31201 1.31336 1.33689 1.3391 1.30451 1.32497 1.30284 1.32239 1.30284 1.32239 1.3011 1.31975 1.26093 1.30284 1.26047 1.3011 1.26134 1.30451 1.26093 1.30284 1.26472 1.16251 1.2648 1.16183 1.26458 1.16353 1.26472 1.16251 1.16353 1.01988 1.16251 1.01813 1.16251 1.01813 1.16183 1.01703 1.21716 1.21153 1.21712 1.21123 1.21358 1.20899 1.21716 1.21153 1.20899 1.20402 1.21153 1.20562 1.21153 1.20562 1.21123 1.20508 1.27564 1.27584 1.27981 1.28008 1.27981 1.28008 1.28389 1.28424 1.27801 1.27981 1.28178 1.28389 1.27413 1.27564 1.27801 1.27981 1.26265 1.31062 1.26237 1.30918 1.31062 1.33463 1.30918 1.3323 1.30918 1.3323 1.30768 1.32992 1.26237 1.30918 1.26206 1.30768 0.999538 0.999357 0.999302 0.999026 0.999302 0.999026 0.998985 0.998578 0.999644 0.999302 0.999489 0.998985 0.999765 0.999538 0.999644 0.999302 1.26102 1.25748 1.26603 1.2618 1.24365 1.24164 1.26102 1.25748 1.24164 1.23945 1.25748 1.25377 1.25748 1.25377 1.2618 1.25744 1.2416 1.24354 1.24584 1.24832 1.23167 1.2416 1.23448 1.24584 1.22862 1.23716 1.23167 1.2416 1.23716 1.23861 1.2416 1.24354 1.26333 1.31466 1.26351 1.31592 1.26313 1.31336 1.26333 1.31466 1.31336 1.3391 1.31466 1.34126 1.31466 1.34126 1.31592 1.34336 1.26441 1.27014 1.26765 1.27413 1.2455 1.26441 1.2472 1.26765 1.24365 1.26102 1.2455 1.26441 1.26102 1.26603 1.26441 1.27014 1.26452 1.26447 1.32653 1.3256 1.26447 1.2644 1.3256 1.32465 1.3256 1.32465 1.36021 1.3585 1.32653 1.3256 1.36188 1.36021 1.0058 1.00806 1.00746 1.01017 1.00416 1.0058 1.00544 1.00746 1.00245 1.00354 1.00416 1.0058 1.00354 1.00514 1.0058 1.00806 1.36667 1.3853 1.36819 1.38728 1.36511 1.38327 1.36667 1.3853 1.38327 1.38863 1.3853 1.39082 1.3853 1.39082 1.38728 1.39297 1.17613 1.17978 1.18081 1.18656 1.18081 1.18656 1.18476 1.19283 1.26484 1.26485 1.33376 1.33447 1.33376 1.33447 1.37528 1.3766 1.33304 1.33376 1.37393 1.37528 1.2648 1.26484 1.33304 1.33376 1.26458 1.26472 1.3316 1.33231 1.26472 1.2648 1.33231 1.33304 1.33231 1.33304 1.37255 1.37393 1.3316 1.33231 1.37113 1.37255 0.998239 0.998663 0.996109 0.99717 0.998663 0.999008 0.99717 0.997963 0.99717 0.997963 0.995926 0.997102 0.996109 0.99717 0.9943 0.995926 1.005 1.00274 0.997396 0.997019 1.01096 1.00749 1.005 1.00274 1.00749 1.00514 1.00274 1.00148 1.00274 1.00148 0.997019 0.997285 1.29741 1.31425 1.29545 1.31138 1.29545 1.31138 1.29342 1.30844 1.25882 1.29545 1.25816 1.29342 1.25942 1.29741 1.25882 1.29545 1.19854 1.22862 1.19883 1.23167 1.19883 1.23167 1.19893 1.23448 1.26313 1.17686 1.26333 1.17595 1.26333 1.17595 1.26351 1.17505 1.3308 1.3316 1.36968 1.37113 1.33 1.3308 1.36819 1.36968 1.26467 1.26472 1.33 1.3308 1.26472 1.26458 1.3308 1.3316 1.13645 1.12547 1.13409 1.12321 1.13409 1.12321 1.13253 1.12176 1.14422 1.13409 1.14266 1.13253 1.14656 1.13645 1.14422 1.13409 1.16949 1.16872 1.1611 1.16027 1.17739 1.17669 1.16949 1.16872 1.17669 1.17645 1.16872 1.16847 1.16872 1.16847 1.16027 1.15999 1.26458 1.3316 1.26472 1.33231 1.3316 1.37113 1.33231 