# vtk DataFile Version 3.0
#This file was generated by the deal.II library on 2020/11/19 at 14:35:03
ASCII
DATASET UNSTRUCTURED_GRID

POINTS 8000 double
0.01 0.03 0
0.01 0.02 0
0.02 0.03 0
0.02 0.02 0
0.01 0.04 0
0.01 0.03 0
0.02 0.04 0
0.02 0.03 0
0 0.04 0
0 0.03 0
0.01 0.04 0
0.01 0.03 0
0 0.03 0
0 0.02 0
0.01 0.03 0
0.01 0.02 0
0.87 0.07 0
0.88 0.07 0
0.87 0.08 0
0.88 0.08 0
0.86 0.07 0
0.87 0.07 0
0.86 0.08 0
0.87 0.08 0
0.86 0.06 0
0.87 0.06 0
0.86 0.07 0
0.87 0.07 0
0.87 0.06 0
0.88 0.06 0
0.87 0.07 0
0.88 0.07 0
0.07 0.07 0
0.08 0.07 0
0.07 0.08 0
0.08 0.08 0
0.06 0.07 0
0.07 0.07 0
0.06 0.08 0
0.07 0.08 0
0.06 0.06 0
0.07 0.06 0
0.06 0.07 0
0.07 0.07 0
0.07 0.06 0
0.08 0.06 0
0.07 0.07 0
0.08 0.07 0
0.03 0.05 0
0.02 0.05 0
0.03 0.04 0
0.02 0.04 0
0.04 0.05 0
0.03 0.05 0
0.04 0.04 0
0.03 0.04 0
0.04 0.06 0
0.03 0.06 0
0.04 0.05 0
0.03 0.05 0
0.03 0.06 0
0.02 0.06 0
0.03 0.05 0
0.02 0.05 0
0.09 0.09 0
0.1 0.09 0
0.09 0.1 0
0.1 0.1 0
0.08 0.09 0
0.09 0.09 0
0.08 0.1 0
0.09 0.1 0
0.08 0.08 0
0.09 0.08 0
0.08 0.09 0
0.09 0.09 0
0.09 0.08 0
0.1 0.08 0
0.09 0.09 0
0.1 0.09 0
0.05 0.15 0
0.05 0.14 0
0.06 0.15 0
0.06 0.14 0
0.05 0.16 0
0.05 0.15 0
0.06 0.16 0
0.06 0.15 0
0.04 0.16 0
0.04 0.15 0
0.05 0.16 0
0.05 0.15 0
0.04 0.15 0
0.04 0.14 0
0.05 0.15 0
0.05 0.14 0
0.11 0.08 0
0.11 0.09 0
0.1 0.08 0
0.1 0.09 0
0.12 0.08 0
0.12 0.09 0
0.11 0.08 0
0.11 0.09 0
0.12 0.09 0
0.12 0.1 0
0.11 0.09 0
0.11 0.1 0
0.11 0.09 0
0.11 0.1 0
0.1 0.09 0
0.1 0.1 0
0.13 0.09 0
0.14 0.09 0
0.13 0.1 0
0.14 0.1 0
0.12 0.09 0
0.13 0.09 0
0.12 0.1 0
0.13 0.1 0
0.12 0.08 0
0.13 0.08 0
0.12 0.09 0
0.13 0.09 0
0.13 0.08 0
0.14 0.08 0
0.13 0.09 0
0.14 0.09 0
0.09 0.16 0
0.09 0.15 0
0.1 0.16 0
0.1 0.15 0
0.08 0.16 0
0.08 0.15 0
0.09 0.16 0
0.09 0.15 0
0.08 0.15 0
0.08 0.14 0
0.09 0.15 0
0.09 0.14 0
0.09 0.15 0
0.09 0.14 0
0.1 0.15 0
0.1 0.14 0
0.59 0.11 0
0.58 0.11 0
0.59 0.1 0
0.58 0.1 0
0.6 0.11 0
0.59 0.11 0
0.6 0.1 0
0.59 0.1 0
0.6 0.12 0
0.59 0.12 0
0.6 0.11 0
0.59 0.11 0
0.59 0.12 0
0.58 0.12 0
0.59 0.11 0
0.58 0.11 0
0.57 0.12 0
0.57 0.11 0
0.58 0.12 0
0.58 0.11 0
0.56 0.12 0
0.56 0.11 0
0.57 0.12 0
0.57 0.11 0
0.56 0.11 0
0.56 0.1 0
0.57 0.11 0
0.57 0.1 0
0.57 0.11 0
0.57 0.1 0
0.58 0.11 0
0.58 0.1 0
0.39 0.11 0
0.38 0.11 0
0.39 0.1 0
0.38 0.1 0
0.4 0.11 0
0.39 0.11 0
0.4 0.1 0
0.39 0.1 0
0.4 0.12 0
0.39 0.12 0
0.4 0.11 0
0.39 0.11 0
0.39 0.12 0
0.38 0.12 0
0.39 0.11 0
0.38 0.11 0
0.75 0.09 0
0.76 0.09 0
0.75 0.1 0
0.76 0.1 0
0.74 0.09 0
0.75 0.09 0
0.74 0.1 0
0.75 0.1 0
0.74 0.08 0
0.75 0.08 0
0.74 0.09 0
0.75 0.09 0
0.75 0.08 0
0.76 0.08 0
0.75 0.09 0
0.76 0.09 0
0.55 0.12 0
0.55 0.11 0
0.56 0.12 0
0.56 0.11 0
0.54 0.12 0
0.54 0.11 0
0.55 0.12 0
0.55 0.11 0
0.54 0.11 0
0.54 0.1 0
0.55 0.11 0
0.55 0.1 0
0.55 0.11 0
0.55 0.1 0
0.56 0.11 0
0.56 0.1 0
0.37 0.11 0
0.36 0.11 0
0.37 0.1 0
0.36 0.1 0
0.38 0.11 0
0.37 0.11 0
0.38 0.1 0
0.37 0.1 0
0.38 0.12 0
0.37 0.12 0
0.38 0.11 0
0.37 0.11 0
0.37 0.12 0
0.36 0.12 0
0.37 0.11 0
0.36 0.11 0
0.33 0.12 0
0.33 0.11 0
0.34 0.12 0
0.34 0.11 0
0.32 0.12 0
0.32 0.11 0
0.33 0.12 0
0.33 0.11 0
0.32 0.11 0
0.32 0.1 0
0.33 0.11 0
0.33 0.1 0
0.33 0.11 0
0.33 0.1 0
0.34 0.11 0
0.34 0.1 0
0.19 0.09 0
0.2 0.09 0
0.19 0.1 0
0.2 0.1 0
0.18 0.09 0
0.19 0.09 0
0.18 0.1 0
0.19 0.1 0
0.18 0.08 0
0.19 0.08 0
0.18 0.09 0
0.19 0.09 0
0.19 0.08 0
0.2 0.08 0
0.19 0.09 0
0.2 0.09 0
0.21 0.09 0
0.22 0.09 0
0.21 0.1 0
0.22 0.1 0
0.2 0.09 0
0.21 0.09 0
0.2 0.1 0
0.21 0.1 0
0.2 0.08 0
0.21 0.08 0
0.2 0.09 0
0.21 0.09 0
0.21 0.08 0
0.22 0.08 0
0.21 0.09 0
0.22 0.09 0
0.35 0.13 0
0.34 0.13 0
0.35 0.12 0
0.34 0.12 0
0.36 0.13 0
0.35 0.13 0
0.36 0.12 0
0.35 0.12 0
0.36 0.14 0
0.35 0.14 0
0.36 0.13 0
0.35 0.13 0
0.35 0.14 0
0.34 0.14 0
0.35 0.13 0
0.34 0.13 0
0.04 0.19 0
0.03 0.19 0
0.04 0.18 0
0.03 0.18 0
0.04 0.2 0
0.03 0.2 0
0.04 0.19 0
0.03 0.19 0
0.03 0.2 0
0.02 0.2 0
0.03 0.19 0
0.02 0.19 0
0.03 0.19 0
0.02 0.19 0
0.03 0.18 0
0.02 0.18 0
0.15 0.08 0
0.15 0.09 0
0.14 0.08 0
0.14 0.09 0
0.16 0.08 0
0.16 0.09 0
0.15 0.08 0
0.15 0.09 0
0.16 0.09 0
0.16 0.1 0
0.15 0.09 0
0.15 0.1 0
0.15 0.09 0
0.15 0.1 0
0.14 0.09 0
0.14 0.1 0
0.91 0.08 0
0.92 0.08 0
0.91 0.09 0
0.92 0.09 0
0.91 0.09 0
0.92 0.09 0
0.91 0.1 0
0.92 0.1 0
0.9 0.09 0
0.91 0.09 0
0.9 0.1 0
0.91 0.1 0
0.9 0.08 0
0.91 0.08 0
0.9 0.09 0
0.91 0.09 0
0.23 0.11 0
0.22 0.11 0
0.23 0.1 0
0.22 0.1 0
0.24 0.11 0
0.23 0.11 0
0.24 0.1 0
0.23 0.1 0
0.24 0.12 0
0.23 0.12 0
0.24 0.11 0
0.23 0.11 0
0.23 0.12 0
0.22 0.12 0
0.23 0.11 0
0.22 0.11 0
0.24 0.09 0
0.24 0.1 0
0.23 0.09 0
0.23 0.1 0
0.23 0.09 0
0.23 0.1 0
0.22 0.09 0
0.22 0.1 0
0.23 0.08 0
0.23 0.09 0
0.22 0.08 0
0.22 0.09 0
0.24 0.08 0
0.24 0.09 0
0.23 0.08 0
0.23 0.09 0
0.25 0.12 0
0.25 0.11 0
0.26 0.12 0
0.26 0.11 0
0.24 0.12 0
0.24 0.11 0
0.25 0.12 0
0.25 0.11 0
0.24 0.11 0
0.24 0.1 0
0.25 0.11 0
0.25 0.1 0
0.25 0.11 0
0.25 0.1 0
0.26 0.11 0
0.26 0.1 0
0.17 0.08 0
0.17 0.09 0
0.16 0.08 0
0.16 0.09 0
0.18 0.08 0
0.18 0.09 0
0.17 0.08 0
0.17 0.09 0
0.18 0.09 0
0.18 0.1 0
0.17 0.09 0
0.17 0.1 0
0.17 0.09 0
0.17 0.1 0
0.16 0.09 0
0.16 0.1 0
0.61 0.11 0
0.6 0.11 0
0.61 0.1 0
0.6 0.1 0
0.62 0.11 0
0.61 0.11 0
0.62 0.1 0
0.61 0.1 0
0.62 0.12 0
0.61 0.12 0
0.62 0.11 0
0.61 0.11 0
0.61 0.12 0
0.6 0.12 0
0.61 0.11 0
0.6 0.11 0
0.35 0.15 0
0.34 0.15 0
0.35 0.14 0
0.34 0.14 0
0.36 0.15 0
0.35 0.15 0
0.36 0.14 0
0.35 0.14 0
0.36 0.16 0
0.35 0.16 0
0.36 0.15 0
0.35 0.15 0
0.35 0.16 0
0.34 0.16 0
0.35 0.15 0
0.34 0.15 0
0.53 0.12 0
0.53 0.11 0
0.54 0.12 0
0.54 0.11 0
0.52 0.12 0
0.52 0.11 0
0.53 0.12 0
0.53 0.11 0
0.52 0.11 0
0.52 0.1 0
0.53 0.11 0
0.53 0.1 0
0.53 0.11 0
0.53 0.1 0
0.54 0.11 0
0.54 0.1 0
0.43 0.11 0
0.43 0.1 0
0.44 0.11 0
0.44 0.1 0
0.43 0.12 0
0.43 0.11 0
0.44 0.12 0
0.44 0.11 0
0.42 0.12 0
0.42 0.11 0
0.43 0.12 0
0.43 0.11 0
0.42 0.11 0
0.42 0.1 0
0.43 0.11 0
0.43 0.1 0
0.41 0.08 0
0.41 0.09 0
0.4 0.08 0
0.4 0.09 0
0.42 0.08 0
0.42 0.09 0
0.41 0.08 0
0.41 0.09 0
0.42 0.09 0
0.42 0.1 0
0.41 0.09 0
0.41 0.1 0
0.41 0.09 0
0.41 0.1 0
0.4 0.09 0
0.4 0.1 0
0.31 0.11 0
0.3 0.11 0
0.31 0.1 0
0.3 0.1 0
0.32 0.11 0
0.31 0.11 0
0.32 0.1 0
0.31 0.1 0
0.32 0.12 0
0.31 0.12 0
0.32 0.11 0
0.31 0.11 0
0.31 0.12 0
0.3 0.12 0
0.31 0.11 0
0.3 0.11 0
0.43 0.09 0
0.44 0.09 0
0.43 0.1 0
0.44 0.1 0
0.42 0.09 0
0.43 0.09 0
0.42 0.1 0
0.43 0.1 0
0.42 0.08 0
0.43 0.08 0
0.42 0.09 0
0.43 0.09 0
0.43 0.08 0
0.44 0.08 0
0.43 0.09 0
0.44 0.09 0
0.81 0.09 0
0.82 0.09 0
0.81 0.1 0
0.82 0.1 0
0.8 0.09 0
0.81 0.09 0
0.8 0.1 0
0.81 0.1 0
0.8 0.08 0
0.81 0.08 0
0.8 0.09 0
0.81 0.09 0
0.81 0.08 0
0.82 0.08 0
0.81 0.09 0
0.82 0.09 0
0.77 0.09 0
0.78 0.09 0
0.77 0.1 0
0.78 0.1 0
0.76 0.09 0
0.77 0.09 0
0.76 0.1 0
0.77 0.1 0
0.76 0.08 0
0.77 0.08 0
0.76 0.09 0
0.77 0.09 0
0.77 0.08 0
0.78 0.08 0
0.77 0.09 0
0.78 0.09 0
0.86 0.08 0
0.87 0.08 0
0.86 0.09 0
0.87 0.09 0
0.87 0.08 0
0.88 0.08 0
0.87 0.09 0
0.88 0.09 0
0.87 0.09 0
0.88 0.09 0
0.87 0.1 0
0.88 0.1 0
0.86 0.09 0
0.87 0.09 0
0.86 0.1 0
0.87 0.1 0
0.89 0.08 0
0.9 0.08 0
0.89 0.09 0
0.9 0.09 0
0.89 0.09 0
0.9 0.09 0
0.89 0.1 0
0.9 0.1 0
0.88 0.09 0
0.89 0.09 0
0.88 0.1 0
0.89 0.1 0
0.88 0.08 0
0.89 0.08 0
0.88 0.09 0
0.89 0.09 0
0.29 0.11 0
0.28 0.11 0
0.29 0.1 0
0.28 0.1 0
0.3 0.11 0
0.29 0.11 0
0.3 0.1 0
0.29 0.1 0
0.3 0.12 0
0.29 0.12 0
0.3 0.11 0
0.29 0.11 0
0.29 0.12 0
0.28 0.12 0
0.29 0.11 0
0.28 0.11 0
0.83 0.08 0
0.83 0.09 0
0.82 0.08 0
0.82 0.09 0
0.84 0.08 0
0.84 0.09 0
0.83 0.08 0
0.83 0.09 0
0.84 0.09 0
0.84 0.1 0
0.83 0.09 0
0.83 0.1 0
0.83 0.09 0
0.83 0.1 0
0.82 0.09 0
0.82 0.1 0
0.25 0.13 0
0.25 0.12 0
0.26 0.13 0
0.26 0.12 0
0.25 0.14 0
0.25 0.13 0
0.26 0.14 0
0.26 0.13 0
0.24 0.14 0
0.24 0.13 0
0.25 0.14 0
0.25 0.13 0
0.24 0.13 0
0.24 0.12 0
0.25 0.13 0
0.25 0.12 0
0.47 0.08 0
0.47 0.09 0
0.46 0.08 0
0.46 0.09 0
0.48 0.08 0
0.48 0.09 0
0.47 0.08 0
0.47 0.09 0
0.48 0.09 0
0.48 0.1 0
0.47 0.09 0
0.47 0.1 0
0.47 0.09 0
0.47 0.1 0
0.46 0.09 0
0.46 0.1 0
0.79 0.09 0
0.8 0.09 0
0.79 0.1 0
0.8 0.1 0
0.78 0.09 0
0.79 0.09 0
0.78 0.1 0
0.79 0.1 0
0.78 0.08 0
0.79 0.08 0
0.78 0.09 0
0.79 0.09 0
0.79 0.08 0
0.8 0.08 0
0.79 0.09 0
0.8 0.09 0
0.63 0.11 0
0.62 0.11 0
0.63 0.1 0
0.62 0.1 0
0.64 0.11 0
0.63 0.11 0
0.64 0.1 0
0.63 0.1 0
0.64 0.12 0
0.63 0.12 0
0.64 0.11 0
0.63 0.11 0
0.63 0.12 0
0.62 0.12 0
0.63 0.11 0
0.62 0.11 0
0.27 0.11 0
0.26 0.11 0
0.27 0.1 0
0.26 0.1 0
0.28 0.11 0
0.27 0.11 0
0.28 0.1 0
0.27 0.1 0
0.28 0.12 0
0.27 0.12 0
0.28 0.11 0
0.27 0.11 0
0.27 0.12 0
0.26 0.12 0
0.27 0.11 0
0.26 0.11 0
0.73 0.12 0
0.73 0.11 0
0.74 0.12 0
0.74 0.11 0
0.72 0.12 0
0.72 0.11 0
0.73 0.12 0
0.73 0.11 0
0.72 0.11 0
0.72 0.1 0
0.73 0.11 0
0.73 0.1 0
0.73 0.11 0
0.73 0.1 0
0.74 0.11 0
0.74 0.1 0
0.88 0.04 0
0.88 0.03 0
0.89 0.04 0
0.89 0.03 0
0.88 0.03 0
0.88 0.02 0
0.89 0.03 0
0.89 0.02 0
0.89 0.03 0
0.89 0.02 0
0.9 0.03 0
0.9 0.02 0
0.89 0.04 0
0.89 0.03 0
0.9 0.04 0
0.9 0.03 0
0.45 0.08 0
0.45 0.09 0
0.44 0.08 0
0.44 0.09 0
0.46 0.08 0
0.46 0.09 0
0.45 0.08 0
0.45 0.09 0
0.46 0.09 0
0.46 0.1 0
0.45 0.09 0
0.45 0.1 0
0.45 0.09 0
0.45 0.1 0
0.44 0.09 0
0.44 0.1 0
0.85 0.09 0
0.86 0.09 0
0.85 0.1 0
0.86 0.1 0
0.84 0.09 0
0.85 0.09 0
0.84 0.1 0
0.85 0.1 0
0.84 0.08 0
0.85 0.08 0
0.84 0.09 0
0.85 0.09 0
0.85 0.08 0
0.86 0.08 0
0.85 0.09 0
0.86 0.09 0
0.51 0.08 0
0.52 0.08 0
0.51 0.09 0
0.52 0.09 0
0.51 0.09 0
0.52 0.09 0
0.51 0.1 0
0.52 0.1 0
0.5 0.09 0
0.51 0.09 0
0.5 0.1 0
0.51 0.1 0
0.5 0.08 0
0.51 0.08 0
0.5 0.09 0
0.51 0.09 0
0.49 0.12 0
0.49 0.11 0
0.5 0.12 0
0.5 0.11 0
0.48 0.12 0
0.48 0.11 0
0.49 0.12 0
0.49 0.11 0
0.48 0.11 0
0.48 0.1 0
0.49 0.11 0
0.49 0.1 0
0.49 0.11 0
0.49 0.1 0
0.5 0.11 0
0.5 0.1 0
0.77 0.06 0
0.77 0.05 0
0.78 0.06 0
0.78 0.05 0
0.76 0.06 0
0.76 0.05 0
0.77 0.06 0
0.77 0.05 0
0.76 0.05 0
0.76 0.04 0
0.77 0.05 0
0.77 0.04 0
0.77 0.05 0
0.77 0.04 0
0.78 0.05 0
0.78 0.04 0
0.69 0.08 0
0.69 0.09 0
0.68 0.08 0
0.68 0.09 0
0.7 0.08 0
0.7 0.09 0
0.69 0.08 0
0.69 0.09 0
0.7 0.09 0
0.7 0.1 0
0.69 0.09 0
0.69 0.1 0
0.69 0.09 0
0.69 0.1 0
0.68 0.09 0
0.68 0.1 0
0.48 0.08 0
0.49 0.08 0
0.48 0.09 0
0.49 0.09 0
0.49 0.08 0
0.5 0.08 0
0.49 0.09 0
0.5 0.09 0
0.49 0.09 0
[...]
POINT_DATA 8000
SCALARS solution_0 double 1
LOOKUP_TABLE default
0.99999 0.999987 0.999957 0.99994 0.999995 0.99999 0.999978 0.999957 1 1 0.999995 0.99999 1 1 0.99999 0.999987 1.33042 1.33122 1.36816 1.36966 1.3296 1.33042 1.36664 1.36816 1.26552 1.26552 1.3296 1.33042 1.26552 1.26552 1.33042 1.33122 1.00076 1.00112 1.00103 1.00151 1.00051 1.00076 1.00069 1.00103 1.00028 1.00041 1.00051 1.00076 1.00041 1.00061 1.00076 1.00112 1 1 0.999947 0.999978 1 1 0.999903 0.999947 1.0001 1.00005 1 1 1.00005 1.00002 1 1 1.00251 1.00352 1.00263 1.00368 1.00176 1.00251 1.00184 1.00263 1.00151 1.00216 1.00176 1.00251 1.00216 1.00304 1.00251 1.00352 1 1.00017 1.00001 1.00028 0.999833 1 0.999746 1.00001 0.999903 1 0.999833 1 1 1.0001 1 1.00017 1.00424 1.00489 1.00304 1.00352 1.00586 1.00671 1.00424 1.00489 1.00671 1.007 1.00489 1.0051 1.00489 1.0051 1.00352 1.00368 1.00913 1.01231 1.0095 1.01276 1.00671 1.00913 1.007 1.0095 1.00586 1.00804 1.00671 1.00913 1.00804 1.01096 1.00913 1.01231 0.999227 1.00007 0.998932 1.00013 0.999449 1.00004 0.999227 1.00007 1.00004 1.00061 1.00007 1.00089 1.00007 1.00089 1.00013 1.00128 1.3124 1.30888 1.31341 1.30977 1.31585 1.3124 1.31699 1.31341 1.31066 1.30766 1.31585 1.3124 1.30766 1.30459 1.3124 1.30888 1.30143 1.30529 1.30459 1.30888 1.29818 1.30162 1.30143 1.30529 1.30162 1.30228 1.30529 1.30606 1.30529 1.30606 1.30888 1.30977 1.22545 1.21982 1.22533 1.21969 1.2309 1.22545 1.23078 1.22533 1.2312 1.22581 1.2309 1.22545 1.22581 1.22023 1.22545 1.21982 1.36005 1.36255 1.36357 1.36624 1.3575 1.36005 1.36085 1.36357 1.34523 1.34726 1.3575 1.36005 1.34726 1.34924 1.36005 1.36255 1.29483 1.29788 1.29818 1.30162 1.2914 1.29407 1.29483 1.29788 1.29407 1.29453 1.29788 1.29844 1.29788 1.29844 1.30162 1.30228 1.21399 1.20792 1.21385 1.20777 1.21982 1.21399 1.21969 1.21385 1.22023 1.21443 1.21982 1.21399 1.21443 1.2084 1.21399 1.20792 1.18863 1.18802 1.19554 1.19497 1.18136 1.18068 1.18863 1.18802 1.18068 1.18045 1.18802 1.18781 1.18802 1.18781 1.19497 1.19479 1.04522 1.05562 1.04579 1.05606 1.03602 1.04522 1.03665 1.04579 1.03405 1.04346 1.03602 1.04522 1.04346 1.05426 1.04522 1.05562 1.06696 1.07889 1.06724 1.07899 1.05562 1.06696 1.05606 1.06724 1.05426 1.06612 1.05562 1.06696 1.06612 1.0786 1.06696 1.07889 1.20302 1.19657 1.20211 1.19554 1.20916 1.20302 1.2084 1.20211 1.20821 1.20295 1.20916 1.20302 1.20295 1.19724 1.20302 1.19657 0.999688 0.999834 0.999736 0.999859 0.999672 0.999825 0.999688 0.999834 0.999825 0.999926 0.999834 0.99993 0.999834 0.99993 0.999859 0.99994 1.0148 1.01643 1.01096 1.01231 1.0198 1.02166 1.0148 1.01643 1.02166 1.02227 1.01643 1.01697 1.01643 1.01697 1.01231 1.01276 1.37394 1.3753 1.39452 1.39632 1.39452 1.39632 1.40071 1.40267 1.39267 1.39452 1.39871 1.40071 1.37254 1.37394 1.39267 1.39452 1.09104 1.07889 1.09099 1.07899 1.10309 1.09104 1.10292 1.09099 1.10367 1.09124 1.10309 1.09104 1.09124 1.0786 1.09104 1.07889 1.10309 1.10292 1.09104 1.09099 1.09104 1.09099 1.07889 1.07899 1.09124 1.09104 1.0786 1.07889 1.10367 1.10309 1.09124 1.09104 1.11561 1.1148 1.12693 1.12599 1.10367 1.10309 1.11561 1.1148 1.10309 1.10292 1.1148 1.11454 1.1148 1.11454 1.12599 1.12568 1.02617 1.02816 1.0198 1.02166 1.03405 1.03602 1.02617 1.02816 1.03602 1.03665 1.02816 1.02881 1.02816 1.02881 1.02166 1.02227 1.31923 1.31585 1.3205 1.31699 1.32254 1.31923 1.32396 1.3205 1.31641 1.31357 1.32254 1.31923 1.31357 1.31066 1.31923 1.31585 1.19294 1.19001 1.20295 1.19724 1.19531 1.19294 1.20821 1.20295 1.14318 1.14636 1.19531 1.19294 1.14636 1.14928 1.19294 1.19001 1.28786 1.29017 1.2914 1.29407 1.28423 1.2862 1.28786 1.29017 1.2862 1.28649 1.29017 1.29055 1.29017 1.29055 1.29407 1.29453 1.24628 1.2462 1.25114 1.25107 1.24632 1.24628 1.25105 1.25114 1.24144 1.2413 1.24632 1.24628 1.2413 1.2412 1.24628 1.2462 1.2364 1.23617 1.2312 1.2309 1.24144 1.2413 1.2364 1.23617 1.2413 1.2412 1.23617 1.23606 1.23617 1.23606 1.2309 1.23078 1.17292 1.16467 1.17266 1.16439 1.18068 1.17292 1.18045 1.17266 1.18136 1.17367 1.18068 1.17292 1.17367 1.1655 1.17292 1.16467 1.24628 1.25114 1.2462 1.25107 1.2413 1.24628 1.2412 1.2462 1.24144 1.24632 1.2413 1.24628 1.24632 1.25105 1.24628 1.25114 1.3743 1.37651 1.37885 1.38123 1.37204 1.3743 1.37643 1.37885 1.3567 1.35845 1.37204 1.3743 1.35845 1.36017 1.3743 1.37651 1.36499 1.36739 1.36886 1.37143 1.36255 1.36499 1.36624 1.36886 1.34924 1.35117 1.36255 1.36499 1.35117 1.35306 1.36499 1.36739 1.36664 1.36816 1.38492 1.38691 1.36816 1.36966 1.38691 1.38887 1.38691 1.38887 1.39247 1.39459 1.38492 1.38691 1.39031 1.39247 1.37112 1.37254 1.39079 1.39267 1.39079 1.39267 1.39667 1.39871 1.38887 1.39079 1.39459 1.39667 1.36966 1.37112 1.38887 1.39079 1.1559 1.14655 1.1556 1.14623 1.16467 1.1559 1.16439 1.1556 1.1655 1.15681 1.16467 1.1559 1.15681 1.14751 1.1559 1.14655 1.36184 1.37868 1.36017 1.37651 1.36348 1.3808 1.36184 1.37868 1.3808 1.38586 1.37868 1.38357 1.37868 1.38357 1.37651 1.38123 1.1171 1.11561 1.12859 1.12693 1.11936 1.1171 1.13103 1.12859 1.10661 1.10477 1.11936 1.1171 1.10477 1.10367 1.1171 1.11561 1.26441 1.26502 1.26009 1.2605 1.2686 1.26944 1.26441 1.26502 1.26944 1.26949 1.26502 1.26503 1.26502 1.26503 1.2605 1.26048 1.36974 1.37204 1.37395 1.37643 1.36739 1.36974 1.37143 1.37395 1.35306 1.3549 1.36739 1.36974 1.3549 1.3567 1.36974 1.37204 1.32579 1.32254 1.32735 1.32396 1.32897 1.32579 1.33068 1.32735 1.32186 1.31917 1.32897 1.32579 1.31917 1.31641 1.32579 1.32254 1.13658 1.12599 1.13626 1.12568 1.14655 1.13658 1.14623 1.13626 1.14751 1.13757 1.14655 1.13658 1.13757 1.12693 1.13658 1.12599 1.34315 1.3549 1.34523 1.3575 1.34102 1.35225 1.34315 1.3549 1.35225 1.35526 1.3549 1.35808 1.3549 1.35808 1.3575 1.36085 1.02078 0.831874 1.01958 0.83052 0.831874 0.597395 0.83052 0.596225 0.83052 0.596225 0.829198 0.595082 1.01958 0.83052 1.0184 0.829198 1.25564 1.25588 1.25105 1.25114 1.26009 1.2605 1.25564 1.25588 1.2605 1.26048 1.25588 1.25583 1.25588 1.25583 1.25114 1.25107 1.38288 1.38492 1.38811 1.39031 1.3808 1.38288 1.38586 1.38811 1.36348 1.36507 1.3808 1.38288 1.36507 1.36664 1.38288 1.38492 1.28049 1.28423 1.28214 1.2862 1.28214 1.2862 1.28236 1.28649 1.278 1.28214 1.27816 1.28236 1.27664 1.28049 1.278 1.28214 1.27268 1.27377 1.27664 1.278 1.2686 1.26944 1.27268 1.27377 1.26944 1.26949 1.27377 1.27387 1.27377 1.27387 1.278 1.27816 1.26512 1.17298 1.2652 1.17212 1.26501 1.17386 1.26512 1.17298 1.17386 1.03751 1.17298 1.03593 1.17298 1.03593 1.17212 1.03439 1.33429 1.34396 1.33193 1.34108 1.33659 1.34678 1.33429 1.34396 1.34678 1.34945 1.34396 1.34646 1.34396 1.34646 1.34108 1.34342 1.2686 1.27268 1.26944 1.27377 1.27268 1.27664 1.27377 1.278 1.27377 1.278 1.27387 1.27816 1.26944 1.27377 1.26949 1.27387 1.20075 1.20111 1.24236 1.2401 1.10837 1.11172 1.20075 1.20111 1.11172 1.11513 1.20111 1.20135 1.20111 1.20135 1.2401 1.23763 0.99981 0.999903 0.999678 0.999833 0.999678 0.999833 0.999502 0.999746 0.999554 0.999678 0.999305 0.999502 0.999736 0.99981 0.999554 0.999678 0.820745 1.01089 0.819664 1.00994 0.587755 0.820745 0.586783 0.819664 0.588742 0.821871 0.587755 0.820745 0.821871 1.01188 0.820745 1.01089 1.01188 1.15882 1.01089 1.15821 1.15882 1.26535 1.15821 1.26533 1.15821 1.26533 1.15764 1.26532 1.01089 1.15821 1.00994 1.15764 1.32448 1.33209 1.32186 1.32897 1.32703 1.33515 1.32448 1.33209 1.33515 1.33717 1.33209 1.33395 1.33209 1.33395 1.32897 1.33068 1.00216 1.00251 1.00304 1.00352 1.00151 1.00176 1.00216 1.00251 1.00176 1.00184 1.00251 1.00263 1.00251 1.00263 1.00352 1.00368 0.966689 0.97311 1.12211 1.12566 0.72188 0.728461 0.966689 0.97311 0.728461 0.735503 0.97311 0.979876 0.97311 0.979876 1.12566 1.12923 0.998077 0.998177 0.997235 0.997381 0.998177 0.998465 0.997381 0.9978 0.997381 0.9978 0.996261 0.996874 0.997235 0.997381 0.996046 0.996261 1.0199 1.02935 1.14636 1.14928 1.01097 1.0199 1.14318 1.14636 0.769645 0.780145 1.01097 1.0199 0.780145 0.791689 1.0199 1.02935 1.2084 1.20211 1.20792 1.2016 1.20211 1.19554 1.2016 1.19497 1.2016 1.19497 1.20143 1.19479 1.20792 1.2016 1.20777 1.20143 1.05185 1.06468 1.05426 1.06612 1.04811 1.06261 1.05185 1.06468 1.06261 1.07779 1.06468 1.07818 1.06468 1.07818 1.06612 1.0786 1.33814 1.34108 1.34032 1.34342 1.33515 1.33814 1.33717 1.34032 1.32703 1.32951 1.33515 1.33814 1.32951 1.33193 1.33814 1.34108 0.998906 0.999449 0.998441 0.999227 0.998441 0.999227 0.997803 0.998932 0.9978 0.998441 0.996874 0.997803 0.998465 0.998906 0.9978 0.998441 1.33883 1.34954 1.34102 1.35225 1.33659 1.34678 1.33883 1.34954 1.34678 1.34945 1.34954 1.35238 1.34954 1.35238 1.35225 1.35526 1.04782 0.863174 1.04599 0.861006 0.863174 0.624716 0.861006 0.622804 0.861006 0.622804 0.8589 0.620949 1.04599 0.861006 1.04421 0.8589 1.05986 1.05647 1.07777 1.07843 1.06261 1.05986 1.07779 1.07777 1.04811 1.0426 1.06261 1.05986 1.0426 1.03416 1.05986 1.05647 1.01503 1.16074 1.01396 1.16008 1.01613 1.16141 1.01503 1.16074 1.16141 1.26545 1.16074 1.26543 1.16074 1.26543 1.16008 1.2654 1.15944 1.01291 1.15882 1.01188 1.26538 1.15944 1.26535 1.15882 1.2654 1.16008 1.26538 1.15944 1.16008 1.01396 1.15944 1.01291 1.00026 1.00031 1.00014 1.00016 1.00031 1.00033 1.00016 1.00017 1.00016 1.00017 1.00007 1.00007 1.00014 1.00016 1.00006 1.00007 1.10952 1.09441 1.10661 1.09269 1.11699 1.09924 1.10952 1.09441 1.09924 1.07843 1.09441 1.07777 1.09441 1.07777 1.09269 1.07779 0.943953 0.949238 1.10837 1.11172 0.699262 0.704435 0.943953 0.949238 0.704435 0.709907 0.949238 0.954776 0.949238 0.954776 1.11172 1.11513 1.38048 1.4032 1.38171 1.40484 1.4032 1.41015 1.40484 1.41193 1.40484 1.41193 1.40644 1.41367 1.38171 1.40484 1.38292 1.40644 1.34315 1.34523 1.3549 1.3575 1.3549 1.3575 1.35808 1.36085 1.35225 1.3549 1.35526 1.35808 1.34102 1.34315 1.35225 1.3549 0.314749 0.314142 0.589745 0.588742 0.315363 0.314749 0.590768 0.589745 0 0 0.315363 0.314749 0 0 0.314749 0.314142 1.05392 1.05647 1.08972 1.07843 1.07284 1.05392 1.08496 1.08972 1.00254 1.0211 1.07284 1.05392 1.0211 1.03416 1.05392 1.05647 1.20211 1.2016 1.19554 1.19497 1.2084 1.20792 1.20211 1.2016 1.20792 1.20777 1.2016 1.20143 1.2016 1.20143 1.19497 1.19479 1.17499 1.16692 1.17367 1.1655 1.18259 1.17499 1.18136 1.17367 1.18434 1.17709 1.18259 1.17499 1.17709 1.16925 1.17499 1.16692 0.312242 0.585918 0.312294 0.586044 0 0.312242 0 0.312294 0 0.312919 0 0.312242 0.312919 0.586783 0.312242 0.585918 1.34678 1.34954 1.34945 1.35238 1.33659 1.33883 1.34678 1.34954 1.33883 1.34102 1.34954 1.35225 1.34954 1.35225 1.35238 1.35526 0.824204 0.590768 0.823024 0.589745 0.823024 0.589745 0.821871 0.588742 1.01291 0.823024 1.01188 0.821871 1.01396 0.824204 1.01291 0.823024 0 0 0.351105 0.352839 0.351105 0.352839 0.650456 0.653331 0.349437 0.351105 0.647686 0.650456 0 0 0.349437 0.351105 0 0.346281 0 0.34783 0.346281 0.642443 0.34783 0.645017 0.34783 0.645017 0.349437 0.647686 0 0.34783 0 0.349437 0 0.968206 0 0.913654 0.968206 1.00254 0.913654 1.07284 0.913654 1.07284 0.792348 1.08496 0 0.913654 0 0.792348 1.00265 1.00184 1.00047 1.00025 1.00184 1.00128 1.00025 1.00013 1.00025 1.00013 0.998561 0.998932 1.00047 1.00025 0.998106 0.998561 0.354642 0.656319 0.352839 0.653331 0 0.354642 0 0.352839 0 0.356518 0 0.354642 0.356518 0.659427 0.354642 0.656319 1.03751 0.85104 1.03593 0.849206 0.85104 0.614055 0.849206 0.612452 0.849206 0.612452 0.847421 0.610893 1.03593 0.849206 1.03439 0.847421 1.18136 1.18863 1.18068 1.18802 1.18863 1.19554 1.18802 1.19497 1.18802 1.19497 1.18781 1.19479 1.18068 1.18802 1.18045 1.18781 1.19675 1.25252 1.19589 1.25376 1.19589 1.25376 1.19499 1.25489 1.08687 1.19589 1.08408 1.19499 1.08973 1.19675 1.08687 1.19589 1.00031 1.00016 1.00033 1.00017 1.00026 1.00014 1.00031 1.00016 1.00014 1.00006 1.00016 1.00007 1.00016 1.00007 1.00017 1.00007 0.997588 0.994298 0.997089 0.992363 0.998106 0.995806 0.997588 0.994298 0.995806 0.993852 0.994298 0.991427 0.994298 0.991427 0.992363 0.988073 0.998951 0.999248 0.998465 0.998906 0.999305 0.999502 0.998951 0.999248 0.999502 0.999746 0.999248 0.999617 0.999248 0.999617 0.998906 0.999449 1.11699 1.12106 1.13082 1.12045 1.12106 1.02064 1.12045 0.984221 1.12045 0.984221 1.1145 0.951116 1.13082 1.12045 1.14094 1.1145 0.826644 1.01613 0.82541 1.01503 0.82541 1.01503 0.824204 1.01396 0.591811 0.82541 0.590768 0.824204 0.592876 0.826644 0.591811 0.82541 1.33751 1.38171 1.33814 1.38292 1.26533 1.33751 1.26532 1.33814 1.26535 1.33688 1.26533 1.33751 1.33688 1.38048 1.33751 1.38171 1.26532 1.33814 1.2654 1.33882 1.33814 1.38292 1.33882 1.38413 1.33882 1.38413 1.33988 1.38559 1.2654 1.33882 1.26604 1.33988 0.891937 0.895099 1.07114 1.0736 0.888882 0.891937 1.06875 1.07114 0.647686 0.650456 0.888882 0.891937 0.650456 0.653331 0.891937 0.895099 1.00001 1.00002 1.00001 1.00004 1.00001 1.00004 1.00001 1.00006 1 1.00001 1 1.00001 1 1.00001 1 1.00001 1.10552 1.1145 1.14794 1.14094 1.09493 1.10552 1.15238 1.14794 0.895582 0.921628 1.09493 1.10552 0.921628 0.951116 1.10552 1.1145 1.01503 0.82541 1.01396 0.824204 1.01613 0.826644 1.01503 0.82541 0.826644 0.592876 0.82541 0.591811 0.82541 0.591811 0.824204 0.590768 1.26205 1.2616 1.18521 1.18621 1.2616 1.2611 1.18621 1.18721 1.18621 1.18721 1.06191 1.06413 1.18521 1.18621 1.05974 1.06191 0 0 0.312919 0.312242 0 0 0.312242 0.312294 0.312242 0.312294 0.585918 0.586044 0.312919 0.312242 0.586783 0.585918 0.999405 0.997241 0.985548 0.987498 0.985548 0.987498 0.969382 0.97721 0.987287 0.985548 0.959371 0.969382 1.00497 0.999405 0.987287 0.985548 0.998758 0.998951 0.998177 0.998465 0.998692 0.998758 0.998077 0.998177 0.999133 0.999177 0.998692 0.998758 0.999177 0.999305 0.998758 0.998951 1.00671 1.007 1.00913 1.0095 1.00913 1.0095 1.01231 1.01276 1.00804 1.00913 1.01096 1.01231 1.00586 1.00671 1.00804 1.00913 1.26284 1.30643 1.26318 1.30801 1.30643 1.32703 1.30801 1.32951 1.30801 1.32951 1.30953 1.33193 1.26318 1.30801 1.26349 1.30953 0.689712 0.93407 0.685289 0.929442 0.93407 1.10187 0.929442 1.09873 0.929442 1.09873 0.925003 1.09566 0.685289 0.929442 0.681077 0.925003 1.0001 1 1.00017 1 1 0.999903 1 0.999833 1 0.999833 1.00001 0.999746 1.00017 1 1.00028 1.00001 0 0.636367 0 0.592134 0.636367 1.02064 0.592134 0.984221 0.592134 0.984221 0.558684 0.951116 0 0.592134 0 0.558684 0.93407 0.938902 1.10187 1.10509 0.689712 0.694363 0.93407 0.938902 0.694363 0.699262 0.938902 0.943953 0.938902 0.943953 1.10509 1.10837 1.05799 1.08496 1.11248 1.08972 1.11248 1.08972 1.09924 1.07843 1.12106 1.11248 1.11699 1.09924 1.02064 1.05799 1.12106 1.11248 1.09924 1.07843 1.11248 1.08972 1.11248 1.08972 1.05799 1.08496 1.12106 1.11248 1.02064 1.05799 1.11699 1.09924 1.12106 1.11248 1.2497 1.25117 1.27031 1.27336 1.25117 1.25252 1.27336 1.27627 1.27336 1.27627 1.28049 1.28423 1.27031 1.27336 1.27664 1.28049 1.00994 1.15764 1.00914 1.15719 1.15764 1.26532 1.15719 1.2654 1.15719 1.2654 1.15746 1.26604 1.00914 1.15719 1.00918 1.15746 1.00017 1.00028 1.00032 1.00051 1.00032 1.00051 1.00044 1.00069 1.00019 1.00032 1.00026 1.00044 1.0001 1.00017 1.00019 1.00032 1.12316 1.11936 1.13535 1.13103 1.13082 1.12316 1.14094 1.13535 1.11699 1.10952 1.13082 1.12316 1.10952 1.10661 1.12316 1.11936 0.990009 0.992363 0.983452 0.988073 0.987498 0.990009 0.97721 0.983452 0.997241 0.996821 0.987498 0.990009 0.996821 0.997089 0.990009 0.992363 1.05557 1.05763 0.872512 0.875029 1.05763 1.05974 0.875029 0.877625 0.875029 0.877625 0.635238 0.637558 0.872512 0.875029 0.632995 0.635238 1.24444 1.26031 1.24236 1.25666 1.24634 1.26379 1.24444 1.26031 1.26379 1.2686 1.26031 1.26441 1.26031 1.26441 1.25666 1.26009 1.15944 1.26538 1.15882 1.26535 1.01291 1.15944 1.01188 1.15882 1.01396 1.16008 1.01291 1.15944 1.16008 1.2654 1.15944 1.26538 0 0 0.418216 0.424254 0.418216 0.424254 0.760043 0.769645 0.412702 0.418216 0.751216 0.760043 0 0 0.412702 0.418216 1.06413 1.06641 0.88307 0.885928 1.06641 1.06875 0.885928 0.888882 0.885928 0.888882 0.645017 0.647686 0.88307 0.885928 0.642443 0.645017 0.908928 1.08408 0.90528 1.08136 0.90528 1.08136 0.901764 1.07871 0.662661 0.90528 0.659427 0.901764 0.666032 0.908928 0.662661 0.90528 1 0.999995 1 0.999978 1.00001 1 1.00002 1 1 1 1.00001 1 1 1 1 0.999995 0.999474 0.999554 0.999177 0.999305 0.999446 0.999474 0.999133 0.999177 0.999672 0.999688 0.999446 0.999474 0.999688 0.999736 0.999474 0.999554 1.32416 1.32513 1.3567 1.35845 1.26534 1.26539 1.32416 1.32513 1.26539 1.26544 1.32513 1.32608 1.32513 1.32608 1.35845 1.36017 0.984221 1.12045 0.951116 1.1145 1.02064 1.12106 0.984221 1.12045 1.12106 1.11699 1.12045 1.13082 1.12045 1.13082 1.1145 1.14094 1.1902 1.19119 1.07114 1.0736 1.18921 1.1902 1.06875 1.07114 1.25994 1.25928 1.18921 1.1902 1.25928 1.25855 1.1902 1.19119 1.26318 1.18225 1.26349 1.18128 1.26284 1.18323 1.26318 1.18225 1.18323 1.05557 1.18225 1.05356 1.18225 1.05356 1.18128 1.0516 1.26552 1.16494 1.26552 1.16421 1.26552 1.16569 1.26552 1.16494 1.16569 1.02326 1.16494 1.022 1.16494 1.022 1.16421 1.02078 1.01204 1.0148 1.0087 1.01096 1.00811 1.01204 1.00556 1.0087 1.01188 1.01659 1.00811 1.01204 1.01659 1.0198 1.01204 1.0148 1.15519 1.1556 1.17703 1.17097 1.17703 1.17097 1.17709 1.16925 1.18215 1.17703 1.18434 1.17709 1.15386 1.15519 1.18215 1.17703 0.586783 0.819664 0.585918 0.818732 0.819664 1.00994 0.818732 1.00914 0.818732 1.00914 0.818736 1.00918 0.585918 0.818732 0.586044 0.818736 1.35117 1.36499 1.35306 1.36739 1.34924 1.36255 1.35117 1.36499 1.36255 1.36624 1.36499 1.36886 1.36499 1.36886 1.36739 1.37143 1.26401 1.31241 1.26423 1.31377 1.31241 1.33659 1.31377 1.33883 1.31377 1.33883 1.31509 1.34102 1.26423 1.31377 1.26443 1.31509 0.920743 1.09266 0.916651 1.08973 0.677059 0.920743 0.67322 0.916651 0.681077 0.925003 0.677059 0.920743 0.925003 1.09566 0.920743 1.09266 0 0.394561 0 0.390772 0.394561 0.72188 0.390772 0.71571 0.390772 0.71571 0.387216 0.709907 0 0.390772 0 0.387216 1.20055 1.19976 1.22538 1.22161 1.12923 1.1328 1.20055 1.19976 1.1328 1.13634 1.19976 1.19866 1.19976 1.19866 1.22161 1.21751 0 0 0.32831 0.327379 0.32831 0.327379 0.612452 0.610893 0.329268 0.32831 0.614055 0.612452 0 0 0.329268 0.32831 1.01698 1.00979 1.00497 0.999405 1.02507 1.01736 1.01698 1.00979 1.01736 1.01188 1.00979 1.00547 1.00979 1.00547 0.999405 0.997241 1.23569 1.23088 1.2364 1.2312 1.24028 1.23569 1.24144 1.2364 1.23202 1.22884 1.24028 1.23569 1.22884 1.22538 1.23569 1.23088 0 0 0.315988 0.315363 0.315988 0.315363 0.591811 0.590768 0.316625 0.315988 0.592876 0.591811 0 0 0.316625 0.315988 1.26476 1.26489 1.31758 1.31877 1.26489 1.26501 1.31877 1.31992 1.31877 1.31992 1.34726 1.34924 1.31758 1.31877 1.34523 1.34726 1.36348 1.36184 1.3808 1.37868 1.36184 1.36017 1.37868 1.37651 1.37868 1.37651 1.38357 1.38123 1.3808 1.37868 1.38586 1.38357 0.996958 0.964779 1.0211 1.00254 1.01639 0.996958 1.03416 1.0211 1.00497 0.987287 1.01639 0.996958 0.987287 0.959371 0.996958 0.964779 0.968206 0.913653 1.00254 1.07284 0 0 0.968206 0.913653 0 0 0.913653 0.792347 0.913653 0.792347 1.07284 1.08496 1.06078 1.07211 1.15519 1.1556 1.04982 1.06078 1.15386 1.15519 0.818654 0.834544 1.04982 1.06078 0.834544 0.852424 1.06078 1.07211 1.31636 1.31758 1.34315 1.34523 1.31509 1.31636 1.34102 1.34315 1.26443 1.2646 1.31509 1.31636 1.2646 1.26476 1.31636 1.31758 0.872512 0.632995 0.870072 0.630825 0.870072 0.630825 0.867704 0.628724 1.05356 0.870072 1.0516 0.867704 1.05557 0.872512 1.05356 0.870072 1.12316 1.13082 1.13535 1.14094 1.11936 1.12316 1.13103 1.13535 1.10661 1.10952 1.11936 1.12316 1.10952 1.11699 1.12316 1.13082 1.16141 1.01613 1.16074 1.01503 1.16074 1.01503 1.16008 1.01396 1.26543 1.16074 1.2654 1.16008 1.26545 1.16141 1.26543 1.16074 1.26549 1.26547 1.16722 1.168 1.26547 1.26544 1.168 1.1688 1.168 1.1688 1.0272 1.02857 1.16722 1.168 1.02585 1.0272 1.33659 1.33429 1.34678 1.34396 1.33429 1.33193 1.34396 1.34108 1.34396 1.34108 1.34646 1.34342 1.34678 1.34396 1.34945 1.34646 0.97854 0.983452 0.985014 0.988073 0.976688 0.97854 0.983898 0.985014 0.965528 0.968812 0.976688 0.97854 0.968812 0.97721 0.97854 0.983452 1.28173 1.2914 1.28429 1.29483 1.28429 1.29483 1.28674 1.29818 1.25593 1.28429 1.25688 1.28674 1.25489 1.28173 1.25593 1.28429 1.18031 1.18128 1.04968 1.0516 1.17936 1.18031 1.04782 1.