# vtk DataFile Version 3.0
#This file was generated by the deal.II library on 2020/11/19 at 14:44:38
ASCII
DATASET UNSTRUCTURED_GRID

POINTS 16112 double
0.01 0.03 0
0.01 0.02 0
0.02 0.03 0
0.02 0.02 0
0.01 0.04 0
0.01 0.03 0
0.02 0.04 0
0.02 0.03 0
0 0.04 0
0 0.03 0
0.01 0.04 0
0.01 0.03 0
0 0.03 0
0 0.02 0
0.01 0.03 0
0.01 0.02 0
0.87 0.07 0
0.88 0.07 0
0.87 0.08 0
0.88 0.08 0
0.86 0.07 0
0.87 0.07 0
0.86 0.08 0
0.87 0.08 0
0.86 0.06 0
0.87 0.06 0
0.86 0.07 0
0.87 0.07 0
0.87 0.06 0
0.88 0.06 0
0.87 0.07 0
0.88 0.07 0
0.07 0.07 0
0.08 0.07 0
0.07 0.08 0
0.08 0.08 0
0.06 0.07 0
0.07 0.07 0
0.06 0.08 0
0.07 0.08 0
0.06 0.06 0
0.07 0.06 0
0.06 0.07 0
0.07 0.07 0
0.07 0.06 0
0.08 0.06 0
0.07 0.07 0
0.08 0.07 0
0.03 0.05 0
0.02 0.05 0
0.03 0.04 0
0.02 0.04 0
0.04 0.05 0
0.03 0.05 0
0.04 0.04 0
0.03 0.04 0
0.04 0.06 0
0.03 0.06 0
0.04 0.05 0
0.03 0.05 0
0.03 0.06 0
0.02 0.06 0
0.03 0.05 0
0.02 0.05 0
0.09 0.09 0
0.1 0.09 0
0.09 0.1 0
0.1 0.1 0
0.08 0.09 0
0.09 0.09 0
0.08 0.1 0
0.09 0.1 0
0.08 0.08 0
0.09 0.08 0
0.08 0.09 0
0.09 0.09 0
0.09 0.08 0
0.1 0.08 0
0.09 0.09 0
0.1 0.09 0
0.05 0.15 0
0.05 0.14 0
0.06 0.15 0
0.06 0.14 0
0.05 0.16 0
0.05 0.15 0
0.06 0.16 0
0.06 0.15 0
0.04 0.16 0
0.04 0.15 0
0.05 0.16 0
0.05 0.15 0
0.04 0.15 0
0.04 0.14 0
0.05 0.15 0
0.05 0.14 0
0.11 0.08 0
0.11 0.09 0
0.1 0.08 0
0.1 0.09 0
0.12 0.08 0
0.12 0.09 0
0.11 0.08 0
0.11 0.09 0
0.12 0.09 0
0.12 0.1 0
0.11 0.09 0
0.11 0.1 0
0.11 0.09 0
0.11 0.1 0
0.1 0.09 0
0.1 0.1 0
0.13 0.09 0
0.14 0.09 0
0.13 0.1 0
0.14 0.1 0
0.12 0.09 0
0.13 0.09 0
0.12 0.1 0
0.13 0.1 0
0.12 0.08 0
0.13 0.08 0
0.12 0.09 0
0.13 0.09 0
0.13 0.08 0
0.14 0.08 0
0.13 0.09 0
0.14 0.09 0
0.09 0.16 0
0.09 0.15 0
0.1 0.16 0
0.1 0.15 0
0.08 0.16 0
0.08 0.15 0
0.09 0.16 0
0.09 0.15 0
0.08 0.15 0
0.08 0.14 0
0.09 0.15 0
0.09 0.14 0
0.09 0.15 0
0.09 0.14 0
0.1 0.15 0
0.1 0.14 0
0.59 0.11 0
0.58 0.11 0
0.59 0.1 0
0.58 0.1 0
0.6 0.11 0
0.59 0.11 0
0.6 0.1 0
0.59 0.1 0
0.6 0.12 0
0.59 0.12 0
0.6 0.11 0
0.59 0.11 0
0.59 0.12 0
0.58 0.12 0
0.59 0.11 0
0.58 0.11 0
0.57 0.12 0
0.57 0.11 0
0.58 0.12 0
0.58 0.11 0
0.56 0.12 0
0.56 0.11 0
0.57 0.12 0
0.57 0.11 0
0.56 0.11 0
0.56 0.1 0
0.57 0.11 0
0.57 0.1 0
0.57 0.11 0
0.57 0.1 0
0.58 0.11 0
0.58 0.1 0
0.39 0.11 0
0.38 0.11 0
0.39 0.1 0
0.38 0.1 0
0.4 0.11 0
0.39 0.11 0
0.4 0.1 0
0.39 0.1 0
0.4 0.12 0
0.39 0.12 0
0.4 0.11 0
0.39 0.11 0
0.39 0.12 0
0.38 0.12 0
0.39 0.11 0
0.38 0.11 0
0.75 0.09 0
0.76 0.09 0
0.75 0.1 0
0.76 0.1 0
0.74 0.09 0
0.75 0.09 0
0.74 0.1 0
0.75 0.1 0
0.74 0.08 0
0.75 0.08 0
0.74 0.09 0
0.75 0.09 0
0.75 0.08 0
0.76 0.08 0
0.75 0.09 0
0.76 0.09 0
0.55 0.12 0
0.55 0.11 0
0.56 0.12 0
0.56 0.11 0
0.54 0.12 0
0.54 0.11 0
0.55 0.12 0
0.55 0.11 0
0.54 0.11 0
0.54 0.1 0
0.55 0.11 0
0.55 0.1 0
0.55 0.11 0
0.55 0.1 0
0.56 0.11 0
0.56 0.1 0
0.37 0.11 0
0.36 0.11 0
0.37 0.1 0
0.36 0.1 0
0.38 0.11 0
0.37 0.11 0
0.38 0.1 0
0.37 0.1 0
0.38 0.12 0
0.37 0.12 0
0.38 0.11 0
0.37 0.11 0
0.37 0.12 0
0.36 0.12 0
0.37 0.11 0
0.36 0.11 0
0.33 0.12 0
0.33 0.11 0
0.34 0.12 0
0.34 0.11 0
0.32 0.12 0
0.32 0.11 0
0.33 0.12 0
0.33 0.11 0
0.32 0.11 0
0.32 0.1 0
0.33 0.11 0
0.33 0.1 0
0.33 0.11 0
0.33 0.1 0
0.34 0.11 0
0.34 0.1 0
0.19 0.09 0
0.2 0.09 0
0.19 0.1 0
0.2 0.1 0
0.18 0.09 0
0.19 0.09 0
0.18 0.1 0
0.19 0.1 0
0.18 0.08 0
0.19 0.08 0
0.18 0.09 0
0.19 0.09 0
0.19 0.08 0
0.2 0.08 0
0.19 0.09 0
0.2 0.09 0
0.21 0.09 0
0.22 0.09 0
0.21 0.1 0
0.22 0.1 0
0.2 0.09 0
0.21 0.09 0
0.2 0.1 0
0.21 0.1 0
0.2 0.08 0
0.21 0.08 0
0.2 0.09 0
0.21 0.09 0
0.21 0.08 0
0.22 0.08 0
0.21 0.09 0
0.22 0.09 0
0.35 0.13 0
0.34 0.13 0
0.35 0.12 0
0.34 0.12 0
0.36 0.13 0
0.35 0.13 0
0.36 0.12 0
0.35 0.12 0
0.04 0.19 0
0.03 0.19 0
0.04 0.18 0
0.03 0.18 0
0.04 0.2 0
0.03 0.2 0
0.04 0.19 0
0.03 0.19 0
0.03 0.2 0
0.02 0.2 0
0.03 0.19 0
0.02 0.19 0
0.03 0.19 0
0.02 0.19 0
0.03 0.18 0
0.02 0.18 0
0.15 0.08 0
0.15 0.09 0
0.14 0.08 0
0.14 0.09 0
0.16 0.08 0
0.16 0.09 0
0.15 0.08 0
0.15 0.09 0
0.16 0.09 0
0.16 0.1 0
0.15 0.09 0
0.15 0.1 0
0.15 0.09 0
0.15 0.1 0
0.14 0.09 0
0.14 0.1 0
0.91 0.08 0
0.92 0.08 0
0.91 0.09 0
0.92 0.09 0
0.91 0.09 0
0.92 0.09 0
0.91 0.1 0
0.92 0.1 0
0.9 0.09 0
0.91 0.09 0
0.9 0.1 0
0.91 0.1 0
0.9 0.08 0
0.91 0.08 0
0.9 0.09 0
0.91 0.09 0
0.23 0.11 0
0.22 0.11 0
0.23 0.1 0
0.22 0.1 0
0.24 0.11 0
0.23 0.11 0
0.24 0.1 0
0.23 0.1 0
0.24 0.12 0
0.23 0.12 0
0.24 0.11 0
0.23 0.11 0
0.23 0.12 0
0.22 0.12 0
0.23 0.11 0
0.22 0.11 0
0.24 0.09 0
0.24 0.1 0
0.23 0.09 0
0.23 0.1 0
0.23 0.09 0
0.23 0.1 0
0.22 0.09 0
0.22 0.1 0
0.23 0.08 0
0.23 0.09 0
0.22 0.08 0
0.22 0.09 0
0.24 0.08 0
0.24 0.09 0
0.23 0.08 0
0.23 0.09 0
0.25 0.12 0
0.25 0.11 0
0.26 0.12 0
0.26 0.11 0
0.24 0.12 0
0.24 0.11 0
0.25 0.12 0
0.25 0.11 0
0.24 0.11 0
0.24 0.1 0
0.25 0.11 0
0.25 0.1 0
0.25 0.11 0
0.25 0.1 0
0.26 0.11 0
0.26 0.1 0
0.17 0.08 0
0.17 0.09 0
0.16 0.08 0
0.16 0.09 0
0.18 0.08 0
0.18 0.09 0
0.17 0.08 0
0.17 0.09 0
0.18 0.09 0
0.18 0.1 0
0.17 0.09 0
0.17 0.1 0
0.17 0.09 0
0.17 0.1 0
0.16 0.09 0
0.16 0.1 0
0.61 0.11 0
0.6 0.11 0
0.61 0.1 0
0.6 0.1 0
0.62 0.11 0
0.61 0.11 0
0.62 0.1 0
0.61 0.1 0
0.62 0.12 0
0.61 0.12 0
0.62 0.11 0
0.61 0.11 0
0.61 0.12 0
0.6 0.12 0
0.61 0.11 0
0.6 0.11 0
0.53 0.12 0
0.53 0.11 0
0.54 0.12 0
0.54 0.11 0
0.52 0.12 0
0.52 0.11 0
0.53 0.12 0
0.53 0.11 0
0.52 0.11 0
0.52 0.1 0
0.53 0.11 0
0.53 0.1 0
0.53 0.11 0
0.53 0.1 0
0.54 0.11 0
0.54 0.1 0
0.43 0.11 0
0.43 0.1 0
0.44 0.11 0
0.44 0.1 0
0.43 0.12 0
0.43 0.11 0
0.44 0.12 0
0.44 0.11 0
0.42 0.12 0
0.42 0.11 0
0.43 0.12 0
0.43 0.11 0
0.42 0.11 0
0.42 0.1 0
0.43 0.11 0
0.43 0.1 0
0.41 0.08 0
0.41 0.09 0
0.4 0.08 0
0.4 0.09 0
0.42 0.08 0
0.42 0.09 0
0.41 0.08 0
0.41 0.09 0
0.42 0.09 0
0.42 0.1 0
0.41 0.09 0
0.41 0.1 0
0.41 0.09 0
0.41 0.1 0
0.4 0.09 0
0.4 0.1 0
0.31 0.11 0
0.3 0.11 0
0.31 0.1 0
0.3 0.1 0
0.32 0.11 0
0.31 0.11 0
0.32 0.1 0
0.31 0.1 0
0.32 0.12 0
0.31 0.12 0
0.32 0.11 0
0.31 0.11 0
0.31 0.12 0
0.3 0.12 0
0.31 0.11 0
0.3 0.11 0
0.43 0.09 0
0.44 0.09 0
0.43 0.1 0
0.44 0.1 0
0.42 0.09 0
0.43 0.09 0
0.42 0.1 0
0.43 0.1 0
0.42 0.08 0
0.43 0.08 0
0.42 0.09 0
0.43 0.09 0
0.43 0.08 0
0.44 0.08 0
0.43 0.09 0
0.44 0.09 0
0.81 0.09 0
0.82 0.09 0
0.81 0.1 0
0.82 0.1 0
0.8 0.09 0
0.81 0.09 0
0.8 0.1 0
0.81 0.1 0
0.8 0.08 0
0.81 0.08 0
0.8 0.09 0
0.81 0.09 0
0.81 0.08 0
0.82 0.08 0
0.81 0.09 0
0.82 0.09 0
0.77 0.09 0
0.78 0.09 0
0.77 0.1 0
0.78 0.1 0
0.76 0.09 0
0.77 0.09 0
0.76 0.1 0
0.77 0.1 0
0.76 0.08 0
0.77 0.08 0
0.76 0.09 0
0.77 0.09 0
0.77 0.08 0
0.78 0.08 0
0.77 0.09 0
0.78 0.09 0
0.86 0.08 0
0.87 0.08 0
0.86 0.09 0
0.87 0.09 0
0.87 0.08 0
0.88 0.08 0
0.87 0.09 0
0.88 0.09 0
0.87 0.09 0
0.88 0.09 0
0.87 0.1 0
0.88 0.1 0
0.86 0.09 0
0.87 0.09 0
0.86 0.1 0
0.87 0.1 0
0.89 0.08 0
0.9 0.08 0
0.89 0.09 0
0.9 0.09 0
0.89 0.09 0
0.9 0.09 0
0.89 0.1 0
0.9 0.1 0
0.88 0.09 0
0.89 0.09 0
0.88 0.1 0
0.89 0.1 0
0.88 0.08 0
0.89 0.08 0
0.88 0.09 0
0.89 0.09 0
0.29 0.11 0
0.28 0.11 0
0.29 0.1 0
0.28 0.1 0
0.3 0.11 0
0.29 0.11 0
0.3 0.1 0
0.29 0.1 0
0.3 0.12 0
0.29 0.12 0
0.3 0.11 0
0.29 0.11 0
0.29 0.12 0
0.28 0.12 0
0.29 0.11 0
0.28 0.11 0
0.83 0.08 0
0.83 0.09 0
0.82 0.08 0
0.82 0.09 0
0.84 0.08 0
0.84 0.09 0
0.83 0.08 0
0.83 0.09 0
0.84 0.09 0
0.84 0.1 0
0.83 0.09 0
0.83 0.1 0
0.83 0.09 0
0.83 0.1 0
0.82 0.09 0
0.82 0.1 0
0.25 0.13 0
0.25 0.12 0
0.26 0.13 0
0.26 0.12 0
0.25 0.14 0
0.25 0.13 0
0.26 0.14 0
0.26 0.13 0
0.24 0.14 0
0.24 0.13 0
0.25 0.14 0
0.25 0.13 0
0.24 0.13 0
0.24 0.12 0
0.25 0.13 0
0.25 0.12 0
0.47 0.08 0
0.47 0.09 0
0.46 0.08 0
0.46 0.09 0
0.48 0.08 0
0.48 0.09 0
0.47 0.08 0
0.47 0.09 0
0.48 0.09 0
0.48 0.1 0
0.47 0.09 0
0.47 0.1 0
0.47 0.09 0
0.47 0.1 0
0.46 0.09 0
0.46 0.1 0
0.79 0.09 0
0.8 0.09 0
0.79 0.1 0
0.8 0.1 0
0.78 0.09 0
0.79 0.09 0
0.78 0.1 0
0.79 0.1 0
0.78 0.08 0
0.79 0.08 0
0.78 0.09 0
0.79 0.09 0
0.79 0.08 0
0.8 0.08 0
0.79 0.09 0
0.8 0.09 0
0.63 0.11 0
0.62 0.11 0
0.63 0.1 0
0.62 0.1 0
0.64 0.11 0
0.63 0.11 0
0.64 0.1 0
0.63 0.1 0
0.64 0.12 0
0.63 0.12 0
0.64 0.11 0
0.63 0.11 0
0.63 0.12 0
0.62 0.12 0
0.63 0.11 0
0.62 0.11 0
0.27 0.11 0
0.26 0.11 0
0.27 0.1 0
0.26 0.1 0
0.28 0.11 0
0.27 0.11 0
0.28 0.1 0
0.27 0.1 0
0.28 0.12 0
0.27 0.12 0
0.28 0.11 0
0.27 0.11 0
0.27 0.12 0
0.26 0.12 0
0.27 0.11 0
0.26 0.11 0
0.73 0.12 0
0.73 0.11 0
0.74 0.12 0
0.74 0.11 0
0.72 0.12 0
0.72 0.11 0
0.73 0.12 0
0.73 0.11 0
0.72 0.11 0
0.72 0.1 0
0.73 0.11 0
0.73 0.1 0
0.73 0.11 0
0.73 0.1 0
0.74 0.11 0
0.74 0.1 0
0.88 0.04 0
0.88 0.03 0
0.89 0.04 0
0.89 0.03 0
0.88 0.03 0
0.88 0.02 0
0.89 0.03 0
0.89 0.02 0
0.89 0.03 0
0.89 0.02 0
0.9 0.03 0
0.9 0.02 0
0.89 0.04 0
0.89 0.03 0
0.9 0.04 0
0.9 0.03 0
0.45 0.08 0
0.45 0.09 0
0.44 0.08 0
0.44 0.09 0
0.46 0.08 0
0.46 0.09 0
0.45 0.08 0
0.45 0.09 0
0.46 0.09 0
0.46 0.1 0
0.45 0.09 0
0.45 0.1 0
0.45 0.09 0
0.45 0.1 0
0.44 0.09 0
0.44 0.1 0
0.85 0.09 0
0.86 0.09 0
0.85 0.1 0
0.86 0.1 0
0.84 0.09 0
0.85 0.09 0
0.84 0.1 0
0.85 0.1 0
0.84 0.08 0
0.85 0.08 0
0.84 0.09 0
0.85 0.09 0
0.85 0.08 0
0.86 0.08 0
0.85 0.09 0
0.86 0.09 0
0.51 0.08 0
0.52 0.08 0
0.51 0.09 0
0.52 0.09 0
0.51 0.09 0
0.52 0.09 0
0.51 0.1 0
0.52 0.1 0
0.5 0.09 0
0.51 0.09 0
0.5 0.1 0
0.51 0.1 0
0.5 0.08 0
0.51 0.08 0
0.5 0.09 0
0.51 0.09 0
0.49 0.12 0
0.49 0.11 0
0.5 0.12 0
0.5 0.11 0
0.48 0.12 0
0.48 0.11 0
0.49 0.12 0
0.49 0.11 0
0.48 0.11 0
0.48 0.1 0
0.49 0.11 0
0.49 0.1 0
0.49 0.11 0
0.49 0.1 0
0.5 0.11 0
0.5 0.1 0
0.77 0.06 0
0.77 0.05 0
0.78 0.06 0
0.78 0.05 0
0.76 0.06 0
0.76 0.05 0
0.77 0.06 0
0.77 0.05 0
0.76 0.05 0
0.76 0.04 0
0.77 0.05 0
0.77 0.04 0
0.77 0.05 0
0.77 0.04 0
0.78 0.05 0
0.78 0.04 0
0.69 0.08 0
0.69 0.09 0
0.68 0.08 0
0.68 0.09 0
0.7 0.08 0
0.7 0.09 0
0.69 0.08 0
0.69 0.09 0
0.7 0.09 0
0.7 0.1 0
0.69 0.09 0
0.69 0.1 0
0.69 0.09 0
0.69 0.1 0
0.68 0.09 0
0.68 0.1 0
0.48 0.08 0
0.49 0.08 0
0.48 0.09 0
0.49 0.09 0
0.49 0.08 0
0.5 0.08 0
0.49 0.09 0
0.5 0.09 0
0.49 0.09 0
0.5 0.09 0
0.49 0.1 0
0.5 0.1 0
0.48 0.09 0
0.49 0.09 0
0.48 0.1 0
0.49 0.1 0
0.04 0.17 0
0.04 0.16 0
0.05 0.17 0
0.05 0.16 0
0.05 0.17 0
0.05 0.16 0
0.06 0.17 0
0.06 0.16 0
0.05 0.18 0
0.05 0.17 0
0.06 0.18 0
0.06 0.17 0
0.04 0.18 0
0.04 0.17 0
0.05 0.18 0
0.05 0.17 0
0.97 0.17 0
0.97 0.16 0
[...]
POINT_DATA 16112
SCALARS solution_0 double 1
LOOKUP_TABLE default
0.999961 0.999946 0.999837 0.999774 0.99998 0.999961 0.999915 0.999837 1 1 0.99998 0.999961 1 1 0.999961 0.999946 1.36602 1.36602 1.44108 1.44108 1.36602 1.36602 1.44107 1.44108 1.26094 1.26094 1.36602 1.36602 1.26094 1.26094 1.36602 1.36602 1.0026 1.00375 1.00353 1.00508 1.00176 1.0026 1.00239 1.00353 1.00095 1.00141 1.00176 1.0026 1.00141 1.00205 1.0026 1.00375 1 1 0.999806 0.999915 1.00001 1 0.999644 0.999806 1.00037 1.0002 1.00001 1 1.0002 1.00009 1 1 1.00834 1.0116 1.00874 1.01214 1.00592 1.00834 1.00621 1.00874 1.00508 1.00718 1.00592 1.00834 1.00718 1.01002 1.00834 1.0116 1.00002 1.00061 1.00004 1.00095 0.999418 1.00002 0.999111 1.00004 0.999644 1.00001 0.999418 1.00002 1.00001 1.00037 1.00002 1.00061 1.01386 1.01597 1.01002 1.0116 1.01904 1.02181 1.01386 1.01597 1.02181 1.02274 1.01597 1.01669 1.01597 1.01669 1.0116 1.01214 1.02953 1.03964 1.03071 1.0411 1.02181 1.02953 1.02274 1.03071 1.01904 1.02599 1.02181 1.02953 1.02599 1.03524 1.02953 1.03964 0.997422 1.00023 0.996481 1.00043 0.998146 1.00012 0.997422 1.00023 1.00012 1.00205 1.00023 1.00295 1.00023 1.00295 1.00043 1.00421 1.48549 1.48541 1.50046 1.5004 1.48555 1.48549 1.50053 1.50046 1.44058 1.44054 1.48555 1.48549 1.44054 1.44052 1.48549 1.48541 1.44041 1.48538 1.44052 1.48541 1.44042 1.48532 1.44041 1.48538 1.48532 1.5003 1.48538 1.50035 1.48538 1.50035 1.48541 1.5004 1.47748 1.4756 1.49161 1.48953 1.47899 1.47748 1.49329 1.49161 1.4359 1.43483 1.47899 1.47748 1.43483 1.4335 1.47748 1.4756 1.48601 1.48603 1.50101 1.50103 1.48599 1.48601 1.501 1.50101 1.44099 1.441 1.48599 1.48601 1.441 1.44101 1.48601 1.48603 1.44028 1.48524 1.44042 1.48532 1.44023 1.48515 1.44028 1.48524 1.48515 1.50012 1.48524 1.50022 1.48524 1.50022 1.48532 1.5003 1.47326 1.47037 1.48695 1.48375 1.4756 1.47326 1.48953 1.48695 1.4335 1.43185 1.4756 1.47326 1.43185 1.42979 1.47326 1.47037 1.41998 1.45676 1.424 1.4623 1.41495 1.4499 1.41998 1.45676 1.4499 1.46125 1.45676 1.46877 1.45676 1.46877 1.4623 1.47486 1.14286 1.17462 1.14498 1.17662 1.11434 1.14286 1.11653 1.14498 1.10755 1.13623 1.11434 1.14286 1.13623 1.16831 1.14286 1.17462 1.20847 1.24299 1.2104 1.24502 1.17462 1.20847 1.17662 1.2104 1.16831 1.20228 1.17462 1.20847 1.20228 1.23632 1.20847 1.24299 1.3597 1.35824 1.42721 1.424 1.36084 1.3597 1.42979 1.42721 0.998874 0.999388 0.999046 0.999481 0.998815 0.999356 0.998874 0.999388 0.999356 0.99972 0.999388 0.999734 0.999388 0.999734 0.999481 0.999774 1.04743 1.0527 1.03524 1.03964 1.0632 1.06925 1.04743 1.0527 1.06925 1.07124 1.0527 1.05444 1.0527 1.05444 1.03964 1.0411 1.4411 1.4411 1.48616 1.48614 1.48616 1.48614 1.50117 1.50123 1.48614 1.48616 1.50115 1.50117 1.44109 1.4411 1.48614 1.48616 1.27671 1.24299 1.27911 1.24502 1.30839 1.27671 1.31146 1.27911 1.29808 1.26868 1.30839 1.27671 1.26868 1.23632 1.27671 1.24299 1.30839 1.31146 1.27671 1.27911 1.27671 1.27911 1.24299 1.24502 1.26868 1.27671 1.23632 1.24299 1.29808 1.30839 1.26868 1.27671 1.32382 1.33713 1.34568 1.36251 1.29808 1.30839 1.32382 1.33713 1.30839 1.31146 1.33713 1.34114 1.33713 1.34114 1.36251 1.36763 1.08313 1.08974 1.0632 1.06925 1.10755 1.11434 1.08313 1.08974 1.11434 1.11653 1.08974 1.09188 1.08974 1.09188 1.06925 1.07124 1.48561 1.48555 1.5006 1.50053 1.48567 1.48561 1.50066 1.5006 1.44068 1.44062 1.48567 1.48561 1.44062 1.44058 1.48561 1.48555 1.44017 1.48506 1.44023 1.48515 1.4401 1.48495 1.44017 1.48506 1.48495 1.49989 1.48506 1.50001 1.48506 1.50001 1.48515 1.50012 1.482 1.49663 1.48265 1.49735 1.43802 1.482 1.43848 1.48265 1.43745 1.4812 1.43802 1.482 1.4812 1.49574 1.482 1.49663 1.43676 1.48021 1.4359 1.47899 1.43745 1.4812 1.43676 1.48021 1.4812 1.49574 1.48021 1.49465 1.48021 1.49465 1.47899 1.49329 1.44143 1.43102 1.45201 1.4407 1.4499 1.44143 1.46125 1.45201 1.41495 1.40865 1.4499 1.44143 1.40865 1.40079 1.44143 1.43102 1.482 1.48265 1.49663 1.49735 1.4812 1.482 1.49574 1.49663 1.43745 1.43802 1.4812 1.482 1.43802 1.43848 1.482 1.48265 1.48608 1.48608 1.50108 1.50109 1.48607 1.48608 1.50108 1.50108 1.44105 1.44105 1.48607 1.48608 1.44105 1.44106 1.48608 1.48608 1.48604 1.48605 1.50104 1.50106 1.48603 1.48604 1.50103 1.50104 1.44101 1.44102 1.48603 1.48604 1.44102 1.44103 1.48604 1.48605 1.44107 1.44108 1.4861 1.48611 1.44108 1.44108 1.48611 1.48612 1.48611 1.48612 1.50112 1.50113 1.4861 1.48611 1.50111 1.50112 1.44109 1.44109 1.48612 1.48614 1.48612 1.48614 1.50114 1.50115 1.48612 1.48612 1.50113 1.50114 1.44108 1.44109 1.48612 1.48612 1.4183 1.40289 1.42697 1.41041 1.43102 1.4183 1.4407 1.42697 1.40079 1.39099 1.43102 1.4183 1.39099 1.37885 1.4183 1.40289 1.44106 1.48609 1.44106 1.48608 1.44106 1.48609 1.44106 1.48609 1.48609 1.5011 1.48609 1.5011 1.48609 1.5011 1.48608 1.50109 1.29714 1.32382 1.31317 1.34568 1.25026 1.29714 1.25798 1.31317 1.23914 1.27708 1.25026 1.29714 1.27708 1.29808 1.29714 1.32382 1.4394 1.48396 1.43915 1.48361 1.4396 1.48424 1.4394 1.48396 1.48424 1.49911 1.48396 1.4988 1.48396 1.4988 1.48361 1.49841 1.48606 1.48607 1.50107 1.50108 1.48605 1.48606 1.50106 1.50107 1.44103 1.44104 1.48605 1.48606 1.44104 1.44105 1.48606 1.48607 1.48572 1.48567 1.50071 1.50066 1.48575 1.48572 1.50075 1.50071 1.44078 1.44074 1.48575 1.48572 1.44074 1.44068 1.48572 1.48567 1.38439 1.36251 1.39071 1.36763 1.40289 1.38439 1.41041 1.39071 1.37885 1.36398 1.40289 1.38439 1.36398 1.34568 1.38439 1.36251 1.44097 1.48597 1.44099 1.48599 1.44096 1.48595 1.44097 1.48597 1.48595 1.50095 1.48597 1.50097 1.48597 1.50097 1.48599 1.501 0.960714 0.765567 0.960709 0.765562 0.765567 0.540399 0.765562 0.540394 0.765562 0.540394 0.765555 0.540388 0.960709 0.765562 0.960703 0.765555 1.43885 1.48318 1.43848 1.48265 1.43915 1.48361 1.43885 1.48318 1.48361 1.49841 1.48318 1.49793 1.48318 1.49793 1.48265 1.49735 1.4861 1.4861 1.50111 1.50111 1.48609 1.4861 1.5011 1.50111 1.44106 1.44107 1.48609 1.4861 1.44107 1.44107 1.4861 1.4861 1.44001 1.4401 1.48482 1.48495 1.48482 1.48495 1.49975 1.49989 1.48466 1.48482 1.49958 1.49975 1.4399 1.44001 1.48466 1.48482 1.43976 1.48447 1.4399 1.48466 1.4396 1.48424 1.43976 1.48447 1.48424 1.49911 1.48447 1.49937 1.48447 1.49937 1.48466 1.49958 1.26094 1.12587 1.26094 1.12586 1.26094 1.12587 1.26094 1.12587 1.12587 0.960768 1.12587 0.96076 1.12587 0.96076 1.12586 0.960753 1.44089 1.48587 1.44086 1.48584 1.44091 1.4859 1.44089 1.48587 1.4859 1.5009 1.48587 1.50087 1.48587 1.50087 1.48584 1.50084 1.4396 1.43976 1.48424 1.48447 1.43976 1.4399 1.48447 1.48466 1.48447 1.48466 1.49937 1.49958 1.48424 1.48447 1.49911 1.49937 0.999312 0.999644 0.998871 0.999418 0.998871 0.999418 0.998265 0.999111 0.998432 0.998871 0.997586 0.998265 0.999046 0.999312 0.998432 0.998871 0.765629 0.960712 0.765612 0.961169 0.540406 0.765629 0.540466 0.765612 0.540399 0.765569 0.540406 0.765629 0.765569 0.960766 0.765629 0.960712 0.960766 1.12591 0.960712 1.1261 1.12591 1.26051 1.1261 1.2612 0.960712 1.1261 0.961169 1.12602 1.44078 1.48578 1.44078 1.48575 1.44081 1.48579 1.44078 1.48578 1.48579 1.50079 1.48578 1.50077 1.48578 1.50077 1.48575 1.50075 1.00718 1.00834 1.01002 1.0116 1.00508 1.00592 1.00718 1.00834 1.00592 1.00621 1.00834 1.00874 1.00834 1.00874 1.0116 1.01214 0.993547 0.993881 0.9908 0.991286 0.993881 0.994844 0.991286 0.99268 0.991286 0.99268 0.987702 0.989716 0.9908 0.991286 0.986998 0.987702 1.42979 1.42721 1.47037 1.46677 1.42721 1.424 1.46677 1.4623 1.46677 1.4623 1.47978 1.47486 1.47037 1.46677 1.48375 1.47978 1.15663 1.19044 1.16831 1.20228 1.13751 1.17012 1.15663 1.19044 1.17012 1.19937 1.19044 1.22302 1.19044 1.22302 1.20228 1.23632 1.48582 1.48584 1.50081 1.50084 1.48579 1.48582 1.50079 1.50081 1.44081 1.44083 1.48579 1.48582 1.44083 1.44086 1.48582 1.48584 0.996321 0.998146 0.994809 0.997422 0.994809 0.997422 0.99277 0.996481 0.99268 0.994809 0.989716 0.99277 0.994844 0.996321 0.99268 0.994809 1.44094 1.48593 1.44096 1.48595 1.44091 1.4859 1.44094 1.48593 1.4859 1.5009 1.48593 1.50092 1.48593 1.50092 1.48595 1.50095 0.960847 0.765721 0.960829 0.7657 0.765721 0.540535 0.7657 0.540517 0.7657 0.540517 0.765682 0.540501 0.960829 0.7657 0.960813 0.765682 1.17012 1.13634 1.19937 1.15877 1.13751 1.1074 1.17012 1.13634 0.96068 1.1258 0.960667 1.12584 0.960683 1.12582 0.96068 1.1258 1.12582 1.26091 1.1258 1.26095 1.1258 1.26095 1.12584 1.26091 1.12582 0.960711 1.12591 0.960766 1.26143 1.12582 1.26051 1.12591 1.26091 1.12584 1.26143 1.12582 1.12584 0.960667 1.12582 0.960711 1.00095 1.00111 1.00052 1.0006 1.00111 1.00117 1.0006 1.00064 1.0006 1.00064 1.00026 1.00028 1.00052 1.0006 1.00022 1.00026 1.44097 1.44099 1.48597 1.48599 1.48597 1.48599 1.50097 1.501 1.48595 1.48597 1.50095 1.50097 1.44096 1.44097 1.48595 1.48597 0.285195 0.2852 0.540378 0.540399 0.285191 0.285195 0.54037 0.540378 0 0 0.285191 0.285195 0 0 0.285195 0.2852 1.42721 1.46677 1.424 1.4623 1.42978 1.47037 1.42721 1.46677 1.47037 1.48375 1.46677 1.47978 1.46677 1.47978 1.4623 1.47486 1.35081 1.34672 1.40865 1.40079 1.35395 1.35081 1.41495 1.40865 0.285236 0.540524 0.285288 0.540713 0 0.285236 0 0.285288 0 0.285235 0 0.285236 0.285235 0.540466 0.285236 0.540524 1.4859 1.48593 1.5009 1.50092 1.44091 1.44094 1.4859 1.48593 1.44094 1.44096 1.48593 1.48595 1.48593 1.48595 1.50092 1.50095 0.765533 0.54037 0.765553 0.540378 0.765553 0.540378 0.765569 0.540399 0.960711 0.765553 0.960766 0.765569 0.960667 0.765533 0.960711 0.765553 1.00859 1.00601 1.00149 1.0008 1.00601 1.00421 1.0008 1.00043 1.0008 1.00043 0.995289 0.996481 1.00149 1.0008 0.993836 0.995289 0.960768 0.765628 0.96076 0.765619 0.765628 0.540453 0.765619 0.540445 0.765619 0.540445 0.765611 0.540438 0.96076 0.765619 0.960753 0.765611 1.41495 1.41998 1.4499 1.45676 1.41998 1.424 1.45676 1.4623 1.45676 1.4623 1.46877 1.47486 1.4499 1.45676 1.46125 1.46877 1.00111 1.0006 1.00117 1.00064 1.00095 1.00052 1.00111 1.0006 1.00052 1.00022 1.0006 1.00026 1.0006 1.00026 1.00064 1.00028 0.992189 0.981582 0.990599 0.975431 0.993836 0.98638 0.992189 0.981582 0.98638 0.980045 0.981582 0.97232 0.981582 0.97232 0.975431 0.961661 0.996427 0.99744 0.994844 0.996321 0.997586 0.998265 0.996427 0.99744 0.998265 0.999111 0.99744 0.998697 0.99744 0.998697 0.996321 0.998146 0.765539 0.960683 0.76553 0.96068 0.76553 0.96068 0.765533 0.960667 0.54037 0.76553 0.54037 0.765533 0.540374 0.765539 0.54037 0.76553 1.00002 1.00009 1.00004 1.00016 1.00004 1.00016 1.00005 1.00022 1 1.00004 1 1.00005 1 1.00002 1 1.00004 0.96068 0.76553 0.960667 0.765533 0.960683 0.765539 0.96068 0.76553 0.765539 0.540374 0.76553 0.54037 0.76553 0.54037 0.765533 0.54037 0 0 0.285235 0.285236 0 0 0.285236 0.285288 0.285236 0.285288 0.540524 0.540713 0.285235 0.285236 0.540466 0.540524 0.996448 0.990774 0.953161 0.959841 0.953161 0.959841 0.903475 0.927152 1.00995 0.996448 0.954219 0.953161 0.995769 0.996427 0.993881 0.994844 0.995541 0.995769 0.993547 0.993881 0.996993 0.997146 0.995541 0.995769 0.997146 0.997586 0.995769 0.996427 1.02181 1.02274 1.02953 1.03071 1.02953 1.03071 1.03964 1.0411 1.02599 1.02953 1.03524 1.03964 1.01904 1.02181 1.02599 1.02953 1.26093 1.36584 1.2609 1.36587 1.36584 1.44081 1.36587 1.44083 1.36587 1.44083 1.36589 1.44086 1.2609 1.36587 1.26093 1.36589 1.00037 1.00001 1.00061 1.00002 1.00001 0.999644 1.00002 0.999418 1.00002 0.999418 1.00004 0.999111 1.00061 1.00002 1.00095 1.00004 1.36526 1.3653 1.44001 1.4401 1.36521 1.36526 1.4399 1.44001 1.00061 1.00095 1.00114 1.00176 1.00114 1.00176 1.00156 1.00239 1.00069 1.00114 1.00095 1.00156 1.00037 1.00061 1.00069 1.00114 0.967987 0.975431 0.946994 0.961661 0.959841 0.967987 0.927152 0.946994 0.990774 0.989693 0.959841 0.967987 0.989693 0.990599 0.967987 0.975431 0.766192 0.766124 0.540509 0.541043 1.36508 1.4396 1.36499 1.4394 1.36499 1.4394 1.36489 1.43915 1.12582 1.26143 1.12591 1.26051 0.960711 1.12582 0.960766 1.12591 0.960667 1.12584 0.960711 1.12582 1.12584 1.26091 1.12582 1.26143 1 0.99998 1 0.999915 1.00002 1 1.00009 1 1 1 1.00002 1 1 1 1 0.99998 0.998149 0.998432 0.997146 0.997586 0.99805 0.998149 0.996993 0.997146 0.998815 0.998874 0.99805 0.998149 0.998874 0.999046 0.998149 0.998432 1.36601 1.36601 1.44105 1.44105 1.26094 1.26094 1.36601 1.36601 1.26094 1.26094 1.36601 1.36601 1.36601 1.36601 1.44105 1.44106 1.2609 1.12599 1.26093 1.12594 1.26093 1.12587 1.2609 1.12599 1.12587 0.961292 1.12599 0.960896 1.12599 0.960896 1.12594 0.960901 1.26094 1.12584 1.26094 1.12584 1.26094 1.12584 1.26094 1.12584 1.12584 0.960721 1.12584 0.960718 1.12584 0.960718 1.12584 0.960714 1.03851 1.04743 1.02793 1.03524 1.02583 1.03851 1.0178 1.02793 1.03753 1.05277 1.02583 1.03851 1.05277 1.0632 1.03851 1.04743 0.540466 0.765612 0.540524 0.765751 0.765612 0.961169 0.765751 0.96033 0.765751 0.96033 0.765906 0.960511 0.540524 0.765751 0.540713 0.765906 1.44102 1.48604 1.44103 1.48605 1.44101 1.48603 1.44102 1.48604 1.48603 1.50103 1.48604 1.50104 1.48604 1.50104 1.48605 1.50106 1.26094 1.36593 1.26094 1.36595 1.36593 1.44091 1.36595 1.44094 1.36595 1.44094 1.36596 1.44096 1.26094 1.36595 1.26094 1.36596 0 0 0.285237 0.285233 0.285237 0.285233 0.540445 0.540438 0.285242 0.285237 0.540453 0.540445 0 0 0.285242 0.285237 1.04928 1.0296 1.00995 0.996448 1.07676 1.05416 1.04928 1.0296 1.05416 1.03753 1.0296 1.01696 1.0296 1.01696 0.996448 0.990774 1.36386 1.36349 1.43676 1.4359 1.36416 1.36386 1.43745 1.43676 0 0 0.285191 0.285191 0.285191 0.285191 0.54037 0.54037 0.285194 0.285191 0.540374 0.54037 0 0 0.285194 0.285191 1.26094 1.26094 1.36598 1.36598 1.26094 1.26094 1.36598 1.36599 1.36598 1.36599 1.441 1.44101 1.36598 1.36598 1.44099 1.441 1.44106 1.44106 1.48609 1.48609 1.44106 1.44106 1.48609 1.48608 1.48609 1.48608 1.5011 1.50109 1.48609 1.48609 1.5011 1.5011 1.36597 1.36598 1.44097 1.44099 1.36596 1.36597 1.44096 1.44097 1.26094 1.26094 1.36596 1.36597 1.26094 1.26094 1.36597 1.36598 0.766192 0.540509 0.765777 0.540623 0.765777 0.540623 0.765777 0.540571 0.960896 0.765777 0.960901 0.765777 0.961292 0.766192 0.960896 0.765777 1.12582 0.960683 1.1258 0.96068 1.1258 0.96068 1.12584 0.960667 1.26095 1.1258 1.26091 1.12584 1.26091 1.12582 1.26095 1.1258 1.26094 1.26094 1.12585 1.12585 1.26094 1.26094 1.12585 1.12585 1.12585 1.12585 0.96073 0.960734 1.12585 1.12585 0.960727 0.96073 1.44091 1.44089 1.4859 1.48587 1.44089 1.44086 1.48587 1.48584 1.48587 1.48584 1.50087 1.50084 1.4859 1.48587 1.5009 1.50087 0.931458 0.946994 0.951867 0.961661 0.925694 0.931458 0.948285 0.951867 0.889785 0.90072 0.925694 0.931458 0.90072 0.927152 0.931458 0.946994 1.36534 1.44023 1.36533 1.44028 1.36533 1.44028 1.36526 1.44042 1.12593 1.12594 0.960868 0.960901 1.12592 1.12593 0.960847 0.960868 1.26094 1.26094 1.12592 1.12593 1.26094 1.26093 1.12593 1.12594 1.12584 0.960714 1.12584 0.960709 1.12584 0.960709 1.12583 0.960703 1.26094 1.12584 1.26094 1.12583 1.26094 1.12584 1.26094 1.12584 1.26117 1.36595 1.26051 1.36554 1.36526 1.44042 1.36595 1.44041 1.36595 1.44041 1.36554 1.44052 1.26094 1.36599 1.26094 1.366 1.26094 1.36599 1.26094 1.36599 1.36599 1.44101 1.36599 1.44102 1.36599 1.44102 1.366 1.44103 0.960868 0.960901 0.765743 0.765777 0.765743 0.765777 0.540554 0.540571 0.765721 0.765743 0.540535 0.540554 0.960847 0.960868 0.765721 0.765743 1.37885 1.40289 1.36398 1.38439 1.40289 1.41041 1.38439 1.39071 1.38439 1.39071 1.36251 1.36763 1.36398 1.38439 1.34568 1.36251 1.26094 1.36601 1.26094 1.36601 1.36601 1.44106 1.36601 1.44106 1.36601 1.44106 1.36601 1.44106 1.26094 1.36601 1.26094 1.36601 1.35637 1.41998 1.35824 1.424 1.35395 1.41495 1.35637 1.41998 0.765571 0.540403 0.765567 0.540399 0.960718 0.765571 0.960714 0.765567 0.960721 0.765575 0.960718 0.765571 0.765575 0.540406 0.765571 0.540403 1.1261 0.960712 1.12602 0.961169 1.26051 1.12591 1.2612 1.1261 1.12591 0.960766 1.1261 0.960712 1.3653 1.4401 1.36532 1.44017 1.36532 1.44017 1.36534 1.44023 1.00038 1.00052 1.00016 1.00022 1.0002 1.00038 1.00009 1.00016 1.00037 1.00069 1.0002 1.00038 1.00069 1.00095 1.00038 1.00052 1.36593 1.36595 1.44091 1.44094 1.26094 1.26094 1.36593 1.36595 1.26094 1.26094 1.36595 1.36596 1.36595 1.36596 1.44094 1.44096 1.36584 1.44081 1.36586 1.44078 1.36586 1.44078 1.36577 1.44078 1.26082 1.36586 1.26129 1.36577 1.26093 1.36584 1.26082 1.36586 1.26094 1.12582 1.26091 1.12582 1.26094 1.12583 1.26094 1.12582 1.12583 0.960703 1.12582 0.960695 1.12582 0.960695 1.12582 0.960683 1.36246 1.36175 1.4335 1.43185 1.36175 1.36084 1.43185 1.42979 1.48466 1.49958 1.48482 1.49975 1.48482 1.49975 1.48495 1.49989 1.44001 1.48482 1.4401 1.48495 1.4399 1.48466 1.44001 1.48482 1.26094 1.36593 1.26094 1.36591 1.36593 1.44091 1.36591 1.44089 1.36591 1.44089 1.36589 1.44086 1.26094 1.36591 1.26093 1.36589 0.998265 0.997586 0.99744 0.996427 0.99744 0.996427 0.996321 0.994844 0.998697 0.99744 0.998146 0.996321 0.999111 0.998265 0.998697 0.99744 1.36508 1.36499 1.4396 1.4394 1.36499 1.36489 1.4394 1.43915 1.3644 1.43802 1.3646 1.43848 1.36416 1.43745 1.3644 1.43802 1.26094 1.36597 1.26094 1.36598 1.26094 1.36596 1.26094 1.36597 1.36596 1.44096 1.36597 1.44097 1.36597 1.44097 1.36598 1.44099 1.36515 1.43976 1.36521 1.4399 1.36508 1.4396 1.36515 1.43976 1.26094 1.26094 1.36601 1.36601 1.26094 1.26094 1.36601 1.36601 1.36601 1.36601 1.44106 1.44106 1.36601 1.36601 1.44106 1.44106 0 0.285218 0 0.28522 0.285218 0.540412 0.28522 0.540415 0.28522 0.540415 0.285222 0.540419 0 0.28522 0 0.285222 1.02019 1.02793 1.02599 1.03524 1.01456 1.02019 1.01904 1.02599 1.00859 1.01233 1.01456 1.02019 1.01233 1.0178 1.02019 1.02793 1.44108 1.48611 1.44108 1.48612 1.44107 1.4861 1.44108 1.48611 1.4861 1.50111 1.48611 1.50112 1.48611 1.50112 1.48612 1.50113 1.26095 1.26091 1.36599 1.36644 1.36599 1.36644 1.44141 1.44149 1.36603 1.36599 1.4411 1.44141 1.26091 1.26095 1.36603 1.36599 0.285273 0.285264 0.540501 0.540486 0 0 0.285273 0.285264 0 0 0.285264 0.285255 0.285264 0.285255 0.540486 0.540474 1.26094 1.26094 1.36603 1.36603 1.26094 1.26091 1.36603 1.36603 1.36603 1.36603 1.4411 1.4411 1.36603 1.36603 1.44109 1.4411 0.993836 0.995289 0.98638 0.990031 0.995289 0.996481 0.990031 0.99277 0.990031 0.99277 0.985646 0.989716 0.98638 0.990031 0.980045 0.985646 1.01696 1.00941 0.990774 0.989693 1.03753 1.02583 1.01696 1.00941 1.02583 1.0178 1.00941 1.00514 1.00941 1.00514 0.989693 0.990599 1.36565 1.44068 1.36562 1.44062 1.36562 1.44062 1.3656 1.44058 1.26059 1.36562 1.26059 1.3656 1.26057 1.36565 1.26059 1.36562 0 0.285294 0 0.285303 0.285294 0.540535 0.285303 0.540554 0.285303 0.540554 0.285309 0.540571 0 0.285303 0 0.285309 1.26094 1.1259 1.26094 1.12589 1.1259 0.960813 1.12589 0.960799 1.12589 0.960799 1.12588 0.960787 1.26094 1.12589 1.26094 1.12588 1.36603 1.36603 1.44109 1.44109 1.36602 1.36603 1.44108 1.44109 1.26094 1.26094 1.36602 1.36603 1.26094 1.26094 1.36603 1.36603 1.32481 1.31317 1.36398 1.34568 1.33422 1.32481 1.37885 1.36398 1.40865 1.44143 1.40079 1.43102 1.41495 1.4499 1.40865 1.44143 1.4499 1.46125 1.44143 1.45201 1.44143 1.45201 1.43102 1.4407 1.26094 1.36603 1.26094 1.36603 1.36603 1.44109 1.36603 1.4411 1.36603 1.4411 1.36603 1.4411 1.26094 1.36603 1.26091 1.36603 0.540378 0.765553 0.540399 0.765569 0.54037 0.765533 0.540378 0.765553 0.765533 0.960667 0.765553 0.960711 0.765553 0.960711 0.765569 0.960766 0.285294 0.285283 0.540535 0.540517 0 0 0.285294 0.285283 0 0 0.285283 0.285273 0.285283 0.285273 0.540517 0.540501 0.960787 0.765651 0.960777 0.765639 0.765651 0.540474 0.765639 0.540462 0.765639 0.540462 0.765628 0.540453 0.960777 0.765639 0.960768 0.765628 1.26094 1.12588 1.26094 1.12588 1.12588 0.960787 1.12588 0.960777 1.12588 0.960777 1.12587 0.960768 1.26094 1.12588 1.26094 1.12587 1.26094 1.12586 1.26094 1.12585 1.12586 0.960742 1.12585 0.960738 1.12585 0.960738 1.12585 0.960734 1.26094 1.12585 1.26094 1.12585 1.48614 1.48718 1.50123 1.5021 1.4411 1.44141 1.48614 1.48718 1.12585 0.960727 1.12585 0.960724 1.12585 0.960724 1.12584 0.960721 1.26094 1.12585 1.26094 1.12584 1.26094 1.12585 1.26094 1.12585 1.44081 1.44078 1.48579 1.48578 1.44078 1.44078 1.48578 1.48575 1.48578 1.48575 1.50077 1.50075 1.48579 1.48578 1.50079 1.50077 1.48575 1.50075 1.48572 1.50071 1.48572 1.5007