# vtk DataFile Version 3.0
#This file was generated by the deal.II library on 2020/11/19 at 14:36:52
ASCII
DATASET UNSTRUCTURED_GRID

POINTS 32204 double
0.01 0.03 0
0.01 0.02 0
0.02 0.03 0
0.02 0.02 0
0.01 0.04 0
0.01 0.03 0
0.02 0.04 0
0.02 0.03 0
0 0.04 0
0 0.03 0
0.01 0.04 0
0.01 0.03 0
0 0.03 0
0 0.02 0
0.01 0.03 0
0.01 0.02 0
0.07 0.07 0
0.08 0.07 0
0.07 0.08 0
0.08 0.08 0
0.06 0.07 0
0.07 0.07 0
0.06 0.08 0
0.07 0.08 0
0.06 0.06 0
0.07 0.06 0
0.06 0.07 0
0.07 0.07 0
0.07 0.06 0
0.08 0.06 0
0.07 0.07 0
0.08 0.07 0
0.03 0.05 0
0.02 0.05 0
0.03 0.04 0
0.02 0.04 0
0.04 0.05 0
0.03 0.05 0
0.04 0.04 0
0.03 0.04 0
0.04 0.06 0
0.03 0.06 0
0.04 0.05 0
0.03 0.05 0
0.03 0.06 0
0.02 0.06 0
0.03 0.05 0
0.02 0.05 0
0.09 0.09 0
0.1 0.09 0
0.09 0.1 0
0.1 0.1 0
0.08 0.09 0
0.09 0.09 0
0.08 0.1 0
0.09 0.1 0
0.08 0.08 0
0.09 0.08 0
0.08 0.09 0
0.09 0.09 0
0.09 0.08 0
0.1 0.08 0
0.09 0.09 0
0.1 0.09 0
0.05 0.15 0
0.05 0.14 0
0.06 0.15 0
0.06 0.14 0
0.05 0.16 0
0.05 0.15 0
0.06 0.16 0
0.06 0.15 0
0.04 0.16 0
0.04 0.15 0
0.05 0.16 0
0.05 0.15 0
0.04 0.15 0
0.04 0.14 0
0.05 0.15 0
0.05 0.14 0
0.11 0.08 0
0.11 0.09 0
0.1 0.08 0
0.1 0.09 0
0.12 0.08 0
0.12 0.09 0
0.11 0.08 0
0.11 0.09 0
0.12 0.09 0
0.12 0.1 0
0.11 0.09 0
0.11 0.1 0
0.11 0.09 0
0.11 0.1 0
0.1 0.09 0
0.1 0.1 0
0.13 0.09 0
0.14 0.09 0
0.13 0.1 0
0.14 0.1 0
0.12 0.09 0
0.13 0.09 0
0.12 0.1 0
0.13 0.1 0
0.12 0.08 0
0.13 0.08 0
0.12 0.09 0
0.13 0.09 0
0.13 0.08 0
0.14 0.08 0
0.13 0.09 0
0.14 0.09 0
0.09 0.16 0
0.09 0.15 0
0.1 0.16 0
0.1 0.15 0
0.08 0.16 0
0.08 0.15 0
0.09 0.16 0
0.09 0.15 0
0.08 0.15 0
0.08 0.14 0
0.09 0.15 0
0.09 0.14 0
0.09 0.15 0
0.09 0.14 0
0.1 0.15 0
0.1 0.14 0
0.59 0.11 0
0.58 0.11 0
0.59 0.1 0
0.58 0.1 0
0.6 0.11 0
0.59 0.11 0
0.6 0.1 0
0.59 0.1 0
0.6 0.12 0
0.59 0.12 0
0.6 0.11 0
0.59 0.11 0
0.59 0.12 0
0.58 0.12 0
0.59 0.11 0
0.58 0.11 0
0.57 0.12 0
0.57 0.11 0
0.58 0.12 0
0.58 0.11 0
0.56 0.12 0
0.56 0.11 0
0.57 0.12 0
0.57 0.11 0
0.56 0.11 0
0.56 0.1 0
0.57 0.11 0
0.57 0.1 0
0.57 0.11 0
0.57 0.1 0
0.58 0.11 0
0.58 0.1 0
0.39 0.11 0
0.38 0.11 0
0.39 0.1 0
0.38 0.1 0
0.4 0.11 0
0.39 0.11 0
0.4 0.1 0
0.39 0.1 0
0.4 0.12 0
0.39 0.12 0
0.4 0.11 0
0.39 0.11 0
0.39 0.12 0
0.38 0.12 0
0.39 0.11 0
0.38 0.11 0
0.75 0.09 0
0.76 0.09 0
0.75 0.1 0
0.76 0.1 0
0.74 0.09 0
0.75 0.09 0
0.74 0.1 0
0.75 0.1 0
0.74 0.08 0
0.75 0.08 0
0.74 0.09 0
0.75 0.09 0
0.75 0.08 0
0.76 0.08 0
0.75 0.09 0
0.76 0.09 0
0.55 0.12 0
0.55 0.11 0
0.56 0.12 0
0.56 0.11 0
0.54 0.12 0
0.54 0.11 0
0.55 0.12 0
0.55 0.11 0
0.54 0.11 0
0.54 0.1 0
0.55 0.11 0
0.55 0.1 0
0.55 0.11 0
0.55 0.1 0
0.56 0.11 0
0.56 0.1 0
0.37 0.11 0
0.36 0.11 0
0.37 0.1 0
0.36 0.1 0
0.38 0.11 0
0.37 0.11 0
0.38 0.1 0
0.37 0.1 0
0.38 0.12 0
0.37 0.12 0
0.38 0.11 0
0.37 0.11 0
0.37 0.12 0
0.36 0.12 0
0.37 0.11 0
0.36 0.11 0
0.33 0.12 0
0.33 0.11 0
0.34 0.12 0
0.34 0.11 0
0.32 0.12 0
0.32 0.11 0
0.33 0.12 0
0.33 0.11 0
0.32 0.11 0
0.32 0.1 0
0.33 0.11 0
0.33 0.1 0
0.33 0.11 0
0.33 0.1 0
0.34 0.11 0
0.34 0.1 0
0.19 0.09 0
0.2 0.09 0
0.19 0.1 0
0.2 0.1 0
0.18 0.09 0
0.19 0.09 0
0.18 0.1 0
0.19 0.1 0
0.18 0.08 0
0.19 0.08 0
0.18 0.09 0
0.19 0.09 0
0.19 0.08 0
0.2 0.08 0
0.19 0.09 0
0.2 0.09 0
0.21 0.09 0
0.22 0.09 0
0.21 0.1 0
0.22 0.1 0
0.2 0.09 0
0.21 0.09 0
0.2 0.1 0
0.21 0.1 0
0.2 0.08 0
0.21 0.08 0
0.2 0.09 0
0.21 0.09 0
0.21 0.08 0
0.22 0.08 0
0.21 0.09 0
0.22 0.09 0
0.35 0.13 0
0.34 0.13 0
0.35 0.12 0
0.34 0.12 0
0.36 0.13 0
0.35 0.13 0
0.36 0.12 0
0.35 0.12 0
0.36 0.14 0
0.35 0.14 0
0.36 0.13 0
0.35 0.13 0
0.35 0.14 0
0.34 0.14 0
0.35 0.13 0
0.34 0.13 0
0.04 0.19 0
0.03 0.19 0
0.04 0.18 0
0.03 0.18 0
0.04 0.2 0
0.03 0.2 0
0.04 0.19 0
0.03 0.19 0
0.03 0.2 0
0.02 0.2 0
0.03 0.19 0
0.02 0.19 0
0.03 0.19 0
0.02 0.19 0
0.03 0.18 0
0.02 0.18 0
0.15 0.08 0
0.15 0.09 0
0.14 0.08 0
0.14 0.09 0
0.16 0.08 0
0.16 0.09 0
0.15 0.08 0
0.15 0.09 0
0.16 0.09 0
0.16 0.1 0
0.15 0.09 0
0.15 0.1 0
0.15 0.09 0
0.15 0.1 0
0.14 0.09 0
0.14 0.1 0
0.91 0.08 0
0.92 0.08 0
0.91 0.09 0
0.92 0.09 0
0.91 0.09 0
0.92 0.09 0
0.91 0.1 0
0.92 0.1 0
0.9 0.09 0
0.91 0.09 0
0.9 0.1 0
0.91 0.1 0
0.9 0.08 0
0.91 0.08 0
0.9 0.09 0
0.91 0.09 0
0.23 0.11 0
0.22 0.11 0
0.23 0.1 0
0.22 0.1 0
0.24 0.11 0
0.23 0.11 0
0.24 0.1 0
0.23 0.1 0
0.24 0.12 0
0.23 0.12 0
0.24 0.11 0
0.23 0.11 0
0.23 0.12 0
0.22 0.12 0
0.23 0.11 0
0.22 0.11 0
0.24 0.09 0
0.24 0.1 0
0.23 0.09 0
0.23 0.1 0
0.23 0.09 0
0.23 0.1 0
0.22 0.09 0
0.22 0.1 0
0.23 0.08 0
0.23 0.09 0
0.22 0.08 0
0.22 0.09 0
0.24 0.08 0
0.24 0.09 0
0.23 0.08 0
0.23 0.09 0
0.25 0.12 0
0.25 0.11 0
0.26 0.12 0
0.26 0.11 0
0.24 0.12 0
0.24 0.11 0
0.25 0.12 0
0.25 0.11 0
0.24 0.11 0
0.24 0.1 0
0.25 0.11 0
0.25 0.1 0
0.25 0.11 0
0.25 0.1 0
0.26 0.11 0
0.26 0.1 0
0.17 0.08 0
0.17 0.09 0
0.16 0.08 0
0.16 0.09 0
0.18 0.08 0
0.18 0.09 0
0.17 0.08 0
0.17 0.09 0
0.18 0.09 0
0.18 0.1 0
0.17 0.09 0
0.17 0.1 0
0.17 0.09 0
0.17 0.1 0
0.16 0.09 0
0.16 0.1 0
0.61 0.11 0
0.6 0.11 0
0.61 0.1 0
0.6 0.1 0
0.62 0.11 0
0.61 0.11 0
0.62 0.1 0
0.61 0.1 0
0.62 0.12 0
0.61 0.12 0
0.62 0.11 0
0.61 0.11 0
0.61 0.12 0
0.6 0.12 0
0.61 0.11 0
0.6 0.11 0
0.35 0.15 0
0.34 0.15 0
0.35 0.14 0
0.34 0.14 0
0.36 0.15 0
0.35 0.15 0
0.36 0.14 0
0.35 0.14 0
0.53 0.12 0
0.53 0.11 0
0.54 0.12 0
0.54 0.11 0
0.52 0.12 0
0.52 0.11 0
0.53 0.12 0
0.53 0.11 0
0.52 0.11 0
0.52 0.1 0
0.53 0.11 0
0.53 0.1 0
0.53 0.11 0
0.53 0.1 0
0.54 0.11 0
0.54 0.1 0
0.43 0.11 0
0.43 0.1 0
0.44 0.11 0
0.44 0.1 0
0.43 0.12 0
0.43 0.11 0
0.44 0.12 0
0.44 0.11 0
0.42 0.12 0
0.42 0.11 0
0.43 0.12 0
0.43 0.11 0
0.42 0.11 0
0.42 0.1 0
0.43 0.11 0
0.43 0.1 0
0.41 0.08 0
0.41 0.09 0
0.4 0.08 0
0.4 0.09 0
0.42 0.08 0
0.42 0.09 0
0.41 0.08 0
0.41 0.09 0
0.42 0.09 0
0.42 0.1 0
0.41 0.09 0
0.41 0.1 0
0.41 0.09 0
0.41 0.1 0
0.4 0.09 0
0.4 0.1 0
0.31 0.11 0
0.3 0.11 0
0.31 0.1 0
0.3 0.1 0
0.32 0.11 0
0.31 0.11 0
0.32 0.1 0
0.31 0.1 0
0.32 0.12 0
0.31 0.12 0
0.32 0.11 0
0.31 0.11 0
0.31 0.12 0
0.3 0.12 0
0.31 0.11 0
0.3 0.11 0
0.43 0.09 0
0.44 0.09 0
0.43 0.1 0
0.44 0.1 0
0.42 0.09 0
0.43 0.09 0
0.42 0.1 0
0.43 0.1 0
0.42 0.08 0
0.43 0.08 0
0.42 0.09 0
0.43 0.09 0
0.43 0.08 0
0.44 0.08 0
0.43 0.09 0
0.44 0.09 0
0.81 0.09 0
0.82 0.09 0
0.81 0.1 0
0.82 0.1 0
0.8 0.09 0
0.81 0.09 0
0.8 0.1 0
0.81 0.1 0
0.8 0.08 0
0.81 0.08 0
0.8 0.09 0
0.81 0.09 0
0.81 0.08 0
0.82 0.08 0
0.81 0.09 0
0.82 0.09 0
0.77 0.09 0
0.78 0.09 0
0.77 0.1 0
0.78 0.1 0
0.76 0.09 0
0.77 0.09 0
0.76 0.1 0
0.77 0.1 0
0.76 0.08 0
0.77 0.08 0
0.76 0.09 0
0.77 0.09 0
0.77 0.08 0
0.78 0.08 0
0.77 0.09 0
0.78 0.09 0
0.86 0.08 0
0.87 0.08 0
0.86 0.09 0
0.87 0.09 0
0.87 0.08 0
0.88 0.08 0
0.87 0.09 0
0.88 0.09 0
0.87 0.09 0
0.88 0.09 0
0.87 0.1 0
0.88 0.1 0
0.86 0.09 0
0.87 0.09 0
0.86 0.1 0
0.87 0.1 0
0.89 0.08 0
0.9 0.08 0
0.89 0.09 0
0.9 0.09 0
0.89 0.09 0
0.9 0.09 0
0.89 0.1 0
0.9 0.1 0
0.88 0.09 0
0.89 0.09 0
0.88 0.1 0
0.89 0.1 0
0.88 0.08 0
0.89 0.08 0
0.88 0.09 0
0.89 0.09 0
0.29 0.11 0
0.28 0.11 0
0.29 0.1 0
0.28 0.1 0
0.3 0.11 0
0.29 0.11 0
0.3 0.1 0
0.29 0.1 0
0.3 0.12 0
0.29 0.12 0
0.3 0.11 0
0.29 0.11 0
0.29 0.12 0
0.28 0.12 0
0.29 0.11 0
0.28 0.11 0
0.83 0.08 0
0.83 0.09 0
0.82 0.08 0
0.82 0.09 0
0.84 0.08 0
0.84 0.09 0
0.83 0.08 0
0.83 0.09 0
0.84 0.09 0
0.84 0.1 0
0.83 0.09 0
0.83 0.1 0
0.83 0.09 0
0.83 0.1 0
0.82 0.09 0
0.82 0.1 0
0.25 0.13 0
0.25 0.12 0
0.26 0.13 0
0.26 0.12 0
0.25 0.14 0
0.25 0.13 0
0.26 0.14 0
0.26 0.13 0
0.24 0.14 0
0.24 0.13 0
0.25 0.14 0
0.25 0.13 0
0.24 0.13 0
0.24 0.12 0
0.25 0.13 0
0.25 0.12 0
0.47 0.08 0
0.47 0.09 0
0.46 0.08 0
0.46 0.09 0
0.48 0.08 0
0.48 0.09 0
0.47 0.08 0
0.47 0.09 0
0.48 0.09 0
0.48 0.1 0
0.47 0.09 0
0.47 0.1 0
0.47 0.09 0
0.47 0.1 0
0.46 0.09 0
0.46 0.1 0
0.79 0.09 0
0.8 0.09 0
0.79 0.1 0
0.8 0.1 0
0.78 0.09 0
0.79 0.09 0
0.78 0.1 0
0.79 0.1 0
0.78 0.08 0
0.79 0.08 0
0.78 0.09 0
0.79 0.09 0
0.79 0.08 0
0.8 0.08 0
0.79 0.09 0
0.8 0.09 0
0.63 0.11 0
0.62 0.11 0
0.63 0.1 0
0.62 0.1 0
0.64 0.11 0
0.63 0.11 0
0.64 0.1 0
0.63 0.1 0
0.64 0.12 0
0.63 0.12 0
0.64 0.11 0
0.63 0.11 0
0.63 0.12 0
0.62 0.12 0
0.63 0.11 0
0.62 0.11 0
0.27 0.11 0
0.26 0.11 0
0.27 0.1 0
0.26 0.1 0
0.28 0.11 0
0.27 0.11 0
0.28 0.1 0
0.27 0.1 0
0.28 0.12 0
0.27 0.12 0
0.28 0.11 0
0.27 0.11 0
0.27 0.12 0
0.26 0.12 0
0.27 0.11 0
0.26 0.11 0
0.73 0.12 0
0.73 0.11 0
0.74 0.12 0
0.74 0.11 0
0.72 0.12 0
0.72 0.11 0
0.73 0.12 0
0.73 0.11 0
0.72 0.11 0
0.72 0.1 0
0.73 0.11 0
0.73 0.1 0
0.73 0.11 0
0.73 0.1 0
0.74 0.11 0
0.74 0.1 0
0.45 0.08 0
0.45 0.09 0
0.44 0.08 0
0.44 0.09 0
0.46 0.08 0
0.46 0.09 0
0.45 0.08 0
0.45 0.09 0
0.46 0.09 0
0.46 0.1 0
0.45 0.09 0
0.45 0.1 0
0.45 0.09 0
0.45 0.1 0
0.44 0.09 0
0.44 0.1 0
0.85 0.09 0
0.86 0.09 0
0.85 0.1 0
0.86 0.1 0
0.84 0.09 0
0.85 0.09 0
0.84 0.1 0
0.85 0.1 0
0.84 0.08 0
0.85 0.08 0
0.84 0.09 0
0.85 0.09 0
0.85 0.08 0
0.86 0.08 0
0.85 0.09 0
0.86 0.09 0
0.51 0.08 0
0.52 0.08 0
0.51 0.09 0
0.52 0.09 0
0.51 0.09 0
0.52 0.09 0
0.51 0.1 0
0.52 0.1 0
0.5 0.09 0
0.51 0.09 0
0.5 0.1 0
0.51 0.1 0
0.5 0.08 0
0.51 0.08 0
0.5 0.09 0
0.51 0.09 0
0.49 0.12 0
0.49 0.11 0
0.5 0.12 0
0.5 0.11 0
0.48 0.12 0
0.48 0.11 0
0.49 0.12 0
0.49 0.11 0
0.48 0.11 0
0.48 0.1 0
0.49 0.11 0
0.49 0.1 0
0.49 0.11 0
0.49 0.1 0
0.5 0.11 0
0.5 0.1 0
0.69 0.08 0
0.69 0.09 0
0.68 0.08 0
0.68 0.09 0
0.7 0.08 0
0.7 0.09 0
0.69 0.08 0
0.69 0.09 0
0.7 0.09 0
0.7 0.1 0
0.69 0.09 0
0.69 0.1 0
0.69 0.09 0
0.69 0.1 0
0.68 0.09 0
0.68 0.1 0
0.48 0.08 0
0.49 0.08 0
0.48 0.09 0
0.49 0.09 0
0.49 0.08 0
0.5 0.08 0
0.49 0.09 0
0.5 0.09 0
0.49 0.09 0
0.5 0.09 0
0.49 0.1 0
0.5 0.1 0
0.48 0.09 0
0.49 0.09 0
0.48 0.1 0
0.49 0.1 0
0.04 0.17 0
0.04 0.16 0
0.05 0.17 0
0.05 0.16 0
0.05 0.17 0
0.05 0.16 0
0.06 0.17 0
0.06 0.16 0
0.05 0.18 0
0.05 0.17 0
0.06 0.18 0
0.06 0.17 0
0.04 0.18 0
0.04 0.17 0
0.05 0.18 0
0.05 0.17 0
0.65 0.08 0
0.65 0.09 0
0.64 0.08 0
0.64 0.09 0
0.66 0.08 0
0.66 0.09 0
0.65 0.08 0
0.65 0.09 0
0.66 0.09 0
0.66 0.1 0
0.65 0.09 0
0.65 0.1 0
0.65 0.09 0
0.65 0.1 0
0.64 0.09 0
0.64 0.1 0
0.09 0.12 0
0.09 0.11 0
0.1 0.12 0
0.1 0.11 0
0.08 0.12 0
0.08 0.11 0
0.09 0.12 0
0.09 0.11 0
0.08 0.11 0
0.08 0.1 0
0.09 0.11 0
0.09 0.1 0
0.09 0.11 0
0.09 0.1 0
0.1 0.11 0
0.1 0.1 0
0.08 0.2 0
0.08 0.19 0
0.09 0.2 0
[...]
POINT_DATA 32204
SCALARS solution_0 double 1
LOOKUP_TABLE default
0.999991 0.999988 0.999961 0.999946 0.999996 0.999991 0.99998 0.999961 1 1 0.999996 0.999991 1 1 0.999991 0.999988 1.00068 1.001 1.00093 1.00136 1.00046 1.00068 1.00062 1.00093 1.00025 1.00037 1.00046 1.00068 1.00037 1.00055 1.00068 1.001 1 1 0.999952 0.99998 1 1 0.999913 0.999952 1.00009 1.00005 1 1 1.00005 1.00002 1 1 1.00225 1.00316 1.00236 1.00331 1.00158 1.00225 1.00166 1.00236 1.00136 1.00194 1.00158 1.00225 1.00194 1.00273 1.00225 1.00316 1 1.00015 1.00001 1.00025 0.99985 1 0.999772 1.00001 0.999913 1 0.99985 1 1 1.00009 1 1.00015 1.00381 1.00439 1.00273 1.00316 1.00527 1.00604 1.00381 1.00439 1.00604 1.0063 1.00439 1.00459 1.00439 1.00459 1.00316 1.00331 1.00822 1.01109 1.00855 1.01151 1.00604 1.00822 1.0063 1.00855 1.00527 1.00723 1.00604 1.00822 1.00723 1.00986 1.00822 1.01109 0.999305 1.00006 0.999037 1.00011 0.999504 1.00003 0.999305 1.00006 1.00003 1.00055 1.00006 1.0008 1.00006 1.0008 1.00011 1.00115 1.30968 1.30614 1.31078 1.30713 1.31314 1.30968 1.31438 1.31078 1.30775 1.30472 1.31314 1.30968 1.30472 1.30161 1.30968 1.30614 1.29842 1.30253 1.30161 1.30614 1.29513 1.29885 1.29842 1.30253 1.29885 1.29961 1.30253 1.3034 1.30253 1.3034 1.30614 1.30713 1.22179 1.21602 1.22167 1.2159 1.22735 1.22179 1.22725 1.22167 1.22756 1.22208 1.22735 1.22179 1.22208 1.21638 1.22179 1.21602 1.35749 1.35999 1.36109 1.36376 1.35493 1.35749 1.35837 1.36109 1.34251 1.34458 1.35493 1.35749 1.34458 1.34659 1.35749 1.35999 1.29176 1.29509 1.29513 1.29885 1.28829 1.29125 1.29176 1.29509 1.29125 1.29182 1.29509 1.29575 1.29509 1.29575 1.29885 1.29961 1.21004 1.2038 1.2099 1.20365 1.21602 1.21004 1.2159 1.2099 1.21638 1.21044 1.21602 1.21004 1.21044 1.20427 1.21004 1.2038 1.18392 1.18328 1.19104 1.19046 1.1764 1.17569 1.18392 1.18328 1.17569 1.17546 1.18328 1.18306 1.18328 1.18306 1.19046 1.19027 1.04122 1.05093 1.04179 1.0514 1.03271 1.04122 1.03333 1.04179 1.03081 1.03946 1.03271 1.04122 1.03946 1.04948 1.04122 1.05093 1.06163 1.07304 1.06197 1.07322 1.05093 1.06163 1.0514 1.06197 1.04948 1.06062 1.05093 1.06163 1.06062 1.07252 1.06163 1.07304 1.19852 1.19192 1.19781 1.19104 1.20477 1.19852 1.20427 1.19781 1.20321 1.19778 1.20477 1.19852 1.19778 1.1919 1.19852 1.19192 0.99972 0.999851 0.999763 0.999874 0.999705 0.999843 0.99972 0.999851 0.999843 0.999933 0.999851 0.999937 0.999851 0.999937 0.999874 0.999946 1.01332 1.01482 1.00986 1.01109 1.01785 1.01957 1.01332 1.01482 1.01957 1.02014 1.01482 1.01532 1.01482 1.01532 1.01109 1.01151 1.37168 1.3733 1.39219 1.39407 1.39219 1.39407 1.39836 1.40031 1.39032 1.39219 1.39635 1.39836 1.37026 1.37168 1.39032 1.39219 1.08482 1.07304 1.08485 1.07322 1.09667 1.08482 1.09656 1.08485 1.09701 1.08477 1.09667 1.08482 1.08477 1.07252 1.08482 1.07304 1.09667 1.09656 1.08482 1.08485 1.08482 1.08485 1.07304 1.07322 1.08477 1.08482 1.07252 1.07304 1.09701 1.09667 1.08477 1.08482 1.10893 1.10831 1.12036 1.11957 1.09701 1.09667 1.10893 1.10831 1.09667 1.09656 1.10831 1.10811 1.10831 1.10811 1.11957 1.11931 1.02362 1.0255 1.01785 1.01957 1.03081 1.03271 1.02362 1.0255 1.03271 1.03333 1.0255 1.02612 1.0255 1.02612 1.01957 1.02014 1.31654 1.31314 1.31791 1.31438 1.31988 1.31654 1.32137 1.31791 1.31356 1.31069 1.31988 1.31654 1.31069 1.30775 1.31654 1.31314 1.18734 1.18399 1.19778 1.1919 1.19059 1.18734 1.20321 1.19778 1.28473 1.28734 1.28829 1.29125 1.28106 1.28334 1.28473 1.28734 1.28334 1.28373 1.28734 1.28781 1.28734 1.28781 1.29125 1.29182 1.24302 1.24296 1.24794 1.24792 1.24289 1.24302 1.24771 1.24794 1.23796 1.23795 1.24289 1.24302 1.23795 1.23787 1.24302 1.24296 1.23285 1.23274 1.22756 1.22735 1.23796 1.23795 1.23285 1.23274 1.23795 1.23787 1.23274 1.23264 1.23274 1.23264 1.22735 1.22725 1.16767 1.15916 1.16741 1.15888 1.17569 1.16767 1.17546 1.16741 1.1764 1.16844 1.17569 1.16767 1.16844 1.15999 1.16767 1.15916 1.24302 1.24794 1.24296 1.24792 1.23795 1.24302 1.23787 1.24296 1.23796 1.24289 1.23795 1.24302 1.24289 1.24771 1.24302 1.24794 1.37181 1.37404 1.3764 1.37879 1.36954 1.37181 1.37397 1.3764 1.35417 1.35595 1.36954 1.37181 1.35595 1.35769 1.37181 1.37404 1.36245 1.36486 1.36639 1.36896 1.35999 1.36245 1.36376 1.36639 1.34659 1.34855 1.35999 1.36245 1.34855 1.35047 1.36245 1.36486 1.36426 1.36581 1.3825 1.38451 1.36581 1.36733 1.38451 1.38649 1.38451 1.38649 1.39007 1.3922 1.3825 1.38451 1.3879 1.39007 1.36881 1.37026 1.38842 1.39032 1.38842 1.39032 1.3943 1.39635 1.38649 1.38842 1.3922 1.3943 1.36733 1.36881 1.38649 1.38842 1.15011 1.1405 1.14982 1.14021 1.15916 1.15011 1.15888 1.14982 1.15999 1.151 1.15916 1.15011 1.151 1.14141 1.15011 1.1405 1.35939 1.37622 1.35769 1.37404 1.36105 1.37835 1.35939 1.37622 1.37835 1.38343 1.37622 1.38113 1.37622 1.38113 1.37404 1.37879 1.11008 1.10893 1.12179 1.12036 1.11195 1.11008 1.124 1.12179 1.09894 1.09769 1.11195 1.11008 1.09769 1.09701 1.11008 1.10893 1.26112 1.26201 1.25678 1.25744 1.26533 1.26647 1.26112 1.26201 1.26647 1.26658 1.26201 1.26207 1.26201 1.26207 1.25744 1.25746 1.36723 1.36954 1.37149 1.37397 1.36486 1.36723 1.36896 1.37149 1.35047 1.35234 1.36486 1.36723 1.35234 1.35417 1.36723 1.36954 1.32314 1.31988 1.32477 1.32137 1.32633 1.32314 1.32812 1.32477 1.31913 1.31637 1.32633 1.32314 1.31637 1.31356 1.32314 1.31988 1.13032 1.11957 1.13003 1.11931 1.1405 1.13032 1.14021 1.13003 1.14141 1.1312 1.1405 1.13032 1.1312 1.12036 1.13032 1.11957 1.34039 1.35231 1.34251 1.35493 1.33822 1.34965 1.34039 1.35231 1.34965 1.35277 1.35231 1.3556 1.35231 1.3556 1.35493 1.35837 1.25232 1.25275 1.24771 1.24794 1.25678 1.25744 1.25232 1.25275 1.25744 1.25746 1.25275 1.25274 1.25275 1.25274 1.24794 1.24792 1.38045 1.3825 1.38569 1.3879 1.37835 1.38045 1.38343 1.38569 1.36105 1.36268 1.37835 1.38045 1.36268 1.36426 1.38045 1.3825 1.27729 1.28106 1.27926 1.28334 1.27926 1.28334 1.27957 1.28373 1.27509 1.27926 1.27533 1.27957 1.27342 1.27729 1.27509 1.27926 1.26943 1.27083 1.27342 1.27509 1.26533 1.26647 1.26943 1.27083 1.26647 1.26658 1.27083 1.271 1.27083 1.271 1.27509 1.27533 1.33137 1.34134 1.32896 1.33847 1.33371 1.34417 1.33137 1.34134 1.34417 1.34696 1.34134 1.34397 1.34134 1.34397 1.33847 1.34093 1.26533 1.26943 1.26647 1.27083 1.26943 1.27342 1.27083 1.27509 1.27083 1.27509 1.271 1.27533 1.26647 1.27083 1.26658 1.271 0.99983 0.999913 0.99971 0.99985 0.99971 0.99985 0.999553 0.999772 0.999599 0.99971 0.999377 0.999553 0.999763 0.99983 0.999599 0.99971 1.32145 1.32952 1.31913 1.32633 1.32399 1.33256 1.32145 1.32952 1.33256 1.33464 1.32952 1.33139 1.32952 1.33139 1.32633 1.32812 1.00194 1.00226 1.00273 1.00316 1.00136 1.00158 1.00194 1.00226 1.00158 1.00166 1.00226 1.00236 1.00226 1.00236 1.00316 1.00331 0.998277 0.998366 0.997518 0.997649 0.998366 0.998623 0.997649 0.998025 0.997649 0.998025 0.996648 0.997195 0.997518 0.997649 0.996457 0.996648 1.20427 1.19781 1.2038 1.19729 1.19781 1.19104 1.19729 1.19046 1.19729 1.19046 1.19712 1.19027 1.2038 1.19729 1.20365 1.19712 1.0469 1.05886 1.04948 1.06062 1.04293 1.05626 1.0469 1.05886 1.05626 1.07059 1.05886 1.07168 1.05886 1.07168 1.06062 1.07252 1.33554 1.33847 1.33782 1.34093 1.33256 1.33554 1.33464 1.33782 1.32399 1.32649 1.33256 1.33554 1.32649 1.32896 1.33554 1.33847 0.999017 0.999504 0.998599 0.999305 0.998599 0.999305 0.998026 0.999037 0.998025 0.998599 0.997195 0.998026 0.998623 0.999017 0.998025 0.998599 1.336 1.34694 1.33822 1.34965 1.33371 1.34417 1.336 1.34694 1.34417 1.34696 1.34694 1.34989 1.34694 1.34989 1.34965 1.35277 1.05268 1.04794 1.06945 1.06872 1.05626 1.05268 1.07059 1.06945 1.04293 1.03706 1.05626 1.05268 1.03706 1.02851 1.05268 1.04794 1.00024 1.00028 1.00013 1.00015 1.00028 1.00029 1.00015 1.00015 1.00015 1.00015 1.00006 1.00007 1.00013 1.00015 1.00005 1.00006 1.10111 1.08587 1.09894 1.08503 1.1044 1.08791 1.10111 1.08587 1.08791 1.06874 1.08587 1.06945 1.08587 1.06945 1.08503 1.07059 1.40063 1.40779 1.4023 1.40955 1.4023 1.40955 1.40394 1.41129 1.34039 1.34251 1.35231 1.35493 1.35231 1.35493 1.3556 1.35837 1.34965 1.35231 1.35277 1.3556 1.33822 1.34039 1.34965 1.35231 1.19781 1.19729 1.19104 1.19046 1.20427 1.2038 1.19781 1.19729 1.2038 1.20365 1.19729 1.19712 1.19729 1.19712 1.19046 1.19027 1.16975 1.16141 1.16844 1.15999 1.17758 1.16975 1.1764 1.16844 1.1787 1.1713 1.17758 1.16975 1.1713 1.16329 1.16975 1.16141 1.34417 1.34694 1.34696 1.34989 1.33371 1.336 1.34417 1.34694 1.336 1.33822 1.34694 1.34965 1.34694 1.34965 1.34989 1.35277 1.00237 1.00165 1.0004 1.00022 1.00165 1.00115 1.00022 1.00011 1.00022 1.00011 0.998701 0.999037 1.0004 1.00022 0.998286 0.998701 1.1764 1.18392 1.17569 1.18328 1.18392 1.19104 1.18328 1.19046 1.18328 1.19046 1.18306 1.19027 1.17569 1.18328 1.17546 1.18306 1.00028 1.00015 1.00029 1.00015 1.00024 1.00013 1.00028 1.00015 1.00013 1.00005 1.00015 1.00006 1.00015 1.00006 1.00015 1.00007 0.997809 0.994869 0.997336 0.993119 0.998286 0.996228 0.997809 0.994869 0.996228 0.994484 0.994869 0.99231 0.994869 0.99231 0.993119 0.989306 0.999058 0.999324 0.998623 0.999017 0.999377 0.999553 0.999058 0.999324 0.999553 0.999772 0.999324 0.999655 0.999324 0.999655 0.999017 0.999504 1 1.00002 1.00001 1.00004 1.00001 1.00004 1.00001 1.00005 1 1.00001 1 1.00001 1 1 1 1.00001 0.999094 0.997342 0.986874 0.988612 0.986874 0.988612 0.972589 0.979561 1.0038 0.999094 0.987711 0.986874 0.998885 0.999058 0.998366 0.998623 0.998825 0.998885 0.998277 0.998366 0.999223 0.999263 0.998825 0.998885 0.999263 0.999377 0.998885 0.999058 1.00604 1.0063 1.00822 1.00855 1.00822 1.00855 1.01109 1.01151 1.00723 1.00822 1.00986 1.01109 1.00527 1.00604 1.00723 1.00822 1.00009 1 1.00015 1 1 0.999913 1 0.99985 1 0.99985 1.00001 0.999772 1.00015 1 1.00025 1.00001 1.26974 1.27273 1.27729 1.28106 1.26662 1.26974 1.27342 1.27729 1.00015 1.00025 1.00029 1.00046 1.00029 1.00046 1.00039 1.00062 1.00017 1.00029 1.00024 1.00039 1.00009 1.00015 1.00017 1.00029 1.11487 1.11195 1.12708 1.124 1.10111 1.09894 1.11487 1.11195 0.990975 0.993119 0.98517 0.989306 0.988612 0.990975 0.979561 0.98517 0.997342 0.997043 0.988612 0.990975 0.997043 0.997336 0.990975 0.993119 1.25995 1.26533 1.25639 1.26112 1.25639 1.26112 1.25267 1.25678 1 0.999996 1 0.99998 1 1 1.00002 1 1 1 1 1 1 1 1 0.999996 0.999527 0.999599 0.999263 0.999377 0.999502 0.999527 0.999223 0.999263 0.999705 0.99972 0.999502 0.999527 0.99972 0.999763 0.999527 0.999599 1.0108 1.01332 1.0078 1.00986 1.00722 1.0108 1.00495 1.0078 1.01055 1.01488 1.00722 1.0108 1.01488 1.01785 1.0108 1.01332 1.16972 1.16331 1.1713 1.16329 1.17525 1.16972 1.1787 1.1713 1.34855 1.36245 1.35047 1.36487 1.34659 1.35999 1.34855 1.36245 1.35999 1.36376 1.36245 1.36639 1.36245 1.36639 1.36487 1.36896 1.01469 1.00848 1.0038 0.999094 1.02225 1.01541 1.01469 1.00848 1.01541 1.01055 1.00848 1.00473 1.00848 1.00473 0.999094 0.997342 1.2317 1.22683 1.23285 1.22756 1.23636 1.2317 1.23796 1.23285 1.22756 1.2242 1.23636 1.2317 1.2242 1.22056 1.2317 1.22683 1.36105 1.35939 1.37835 1.37622 1.35939 1.35769 1.37622 1.37404 1.37622 1.37404 1.38113 1.37879 1.37835 1.37622 1.38343 1.38113 1.01324 0.995676 1.02851 1.01478 1.0038 0.987711 1.01324 0.995676 1.11196 1.11486 1.12401 1.12707 1.09891 1.10116 1.11196 1.11486 1.33371 1.33137 1.34417 1.34134 1.33137 1.32896 1.34134 1.33847 1.34134 1.33847 1.34397 1.34093 1.34417 1.34134 1.34696 1.34397 0.980821 0.98517 0.986593 0.989306 0.979185 0.980821 0.985603 0.986593 0.96924 0.972184 0.979185 0.980821 0.972184 0.979561 0.980821 0.98517 1.27833 1.28829 1.28095 1.29176 1.28095 1.29176 1.28347 1.29513 1.16331 1.15593 1.16329 1.15464 1.15593 1.1475 1.15464 1.14526 1.28347 1.29513 1.28588 1.29842 1.28588 1.29842 1.2882 1.30161 1.13792 1.12708 1.13508 1.124 1.1475 1.13792 1.14526 1.13508 1.14141 1.1405 1.1312 1.13032 1.1405 1.14021 1.13032 1.13003 1.13032 1.13003 1.11957 1.11931 1.1312 1.13032 1.12036 1.11957 0.958485 0.972589 0.972184 0.979561 0.95219 0.958485 0.96924 0.972184 1.18495 1.18392 1.19192 1.19104 1.18556 1.18495 1.1919 1.19192 1.1787 1.17758 1.18556 1.18495 1.17758 1.1764 1.18495 1.18392 1.27273 1.28106 1.27559 1.28473 1.27559 1.28473 1.27833 1.28829 1.00009 1.00013 1.00004 1.00005 1.00005 1.00009 1.00002 1.00004 1.00009 1.00017 1.00005 1.00009 1.00017 1.00024 1.00009 1.00013 1.2164 1.21079 1.21638 1.21044 1.21235 1.20777 1.2164 1.21079 1.20777 1.20321 1.21079 1.20477 1.21079 1.20477 1.21044 1.20427 1.27509 1.27533 1.27926 1.27957 1.27926 1.27957 1.28334 1.28373 1.27729 1.27926 1.28106 1.28334 1.27342 1.27509 1.27729 1.27926 0.999553 0.999377 0.999324 0.999058 0.999324 0.999058 0.999017 0.998623 0.999655 0.999324 0.999504 0.999017 0.999772 0.999553 0.999655 0.999324 1.25995 1.25639 1.26533 1.26112 1.25639 1.25267 1.26112 1.25678 1.24082 1.24289 1.24478 1.24771 1.22756 1.23636 1.23092 1.24082 1.23636 1.23796 1.24082 1.24289 1.26336 1.26943 1.26662 1.27342 1.25995 1.26533 1.26336 1.26943 1.00561 1.0078 1.00723 1.00986 1.00403 1.00561 1.00527 1.00723 1.00237 1.00341 1.00403 1.00561 1.00341 1.00495 1.00561 1.0078 1.36581 1.38451 1.36733 1.38649 1.36426 1.3825 1.36581 1.38451 1.3825 1.3879 1.38451 1.39007 1.38451 1.39007 1.38649 1.3922 1.17525 1.1787 1.17998 1.18556 1.17998 1.18556 1.18399 1.1919 0.998286 0.998701 0.996228 0.997258 0.998701 0.999037 0.997258 0.998026 0.997258 0.998026 0.996057 0.997195 0.996228 0.997258 0.994484 0.996057 1.00473 1.00259 0.997342 0.997043 1.01055 1.00722 1.00473 1.00259 1.00722 1.00495 1.00259 1.0014 1.00259 1.0014 0.997043 0.997336 1.29659 1.31356 1.29461 1.31069 1.29461 1.31069 1.29256 1.30775 1.13508 1.124 1.13275 1.12179 1.13275 1.12179 1.1312 1.12036 1.14297 1.13275 1.14141 1.1312 1.14526 1.13508 1.14297 1.13275 1.16844 1.16767 1.15999 1.15916 1.1764 1.17569 1.16844 1.16767 1.17569 1.17546 1.16767 1.16741 1.16767 1.16741 1.15916 1.15888 1.39407 1.39551 1.40031 1.40236 1.39551 1.39722 1.40236 1.40422 1.32399 1.32145 1.33256 1.32952 1.32145 1.31913 1.32952 1.32633 1.32952 1.32633 1.33139 1.32812 1.33256 1.32952 1.33464 1.33139 1.32633 1.32812 1.32314 1.32477 1.32314 1.32477 1.31987 1.32137 1.31637 1.32314 1.31356 1.31987 1.31913 1.32633 1.31637 1.32314 1.2488 1.24478 1.25232 1.24771 1.25267 1.2488 1.25678 1.25232 1.26112 1.25678 1.26201 1.25744 1.26201 1.25744 1.26207 1.25746 1.26647 1.26201 1.26658 1.26207 1.26533 1.26112 1.26647 1.26201 1.23285 1.22756 1.23274 1.22735 1.23274 1.22735 1.23264 1.22725 1.23795 1.23274 1.23787 1.23264 1.23796 1.23285 1.23795 1.23274 1.22056 1.21661 1.22683 1.22173 1.21661 1.21235 1.22173 1.2164 1.22173 1.2164 1.22208 1.21638 1.22683 1.22173 1.22756 1.22208 1.26662 1.27342 1.26974 1.27729 1.26974 1.27729 1.27273 1.28106 1.40554 1.41305 1.40729 1.41497 1.40394 1.41129 1.40554 1.41305 1.39722 1.39893 1.40422 1.40601 1.39893 1.40063 1.40601 1.40779 0.987711 0.986874 1.0038 0.999094 0.972589 0.979561 0.986874 0.988613 0.986874 0.988613 0.999094 0.997342 1.00001 1.00001 1.00006 1.00007 1.00001 1.00001 1.00005 1.00006 1 1 1.00001 1.00001 1 1 1.00001 1.00001 1.15464 1.14526 1.15251 1.14297 1.15251 1.14297 1.151 1.14141 1.16141 1.15251 1.15999 1.151 1.16329 1.15464 1.16141 1.15251 1.25232 1.24771 1.25275 1.24794 1.25275 1.24794 1.25274 1.24792 1.25744 1.25275 1.25746 1.25274 1.25678 1.25232 1.25744 1.25275 1 1.00001 1 1.00001 1 1.00001 1 1.00001 1.00001 1.00005 1.00001 1.00006 1.00001 1.00006 1.00001 1.00007 1.02415 1.01324 1.03706 1.02851 1.03143 1.02415 1.04293 1.03706 1.02225 1.01469 1.03143 1.02415 1.01469 1.0038 1.02415 1.01324 1.02225 1.02743 1.01541 1.02034 1.02743 1.03081 1.02034 1.02362 1.02034 1.02362 1.01488 1.01785 1.01541 1.02034 1.01055 1.01488 1.00144 1.00204 1.00194 1.00273 1.001 1.00144 1.00136 1.00194 1.00055 1.0008 1.001 1.00144 1.0008 1.00115 1.00144 1.00204 1.05886 1.06062 1.07168 1.07252 1.05626 1.05886 1.07059 1.07168 1.04293 1.0469 1.05626 1.05886 1.0469 1.04948 1.05886 1.06062 0.989917 0.985603 0.990548 0.986593 0.990548 0.986593 0.99231 0.989306 0.993308 0.990548 0.994484 0.99231 0.992891 0.989917 0.993308 0.990548 1.0004 0.998286 1.00075 0.997809 1.00075 0.997809 1.0014 0.997336 1.00341 1.00075 1.00495 1.0014 1.00237 1.0004 1.00341 1.00075 1.00165 1.00288 1.00115 1.00204 1.00237 1.00403 1.00165 1.00288 1.00403 1.00527 1.00288 1.00381 1.00288 1.00381 1.00204 1.00273 1.02743 1.03631 1.03081 1.03946 1.02225 1.03143 1.02743 1.03631 1.03143 1.04293 1.03631 1.0469 1.03631 1.0469 1.03946 1.04948 1.40394 1.40554 1.41129 1.41305 1.40554 1.40729 1.41305 1.41497 0.997043 0.997336 1.00259 1.0014 1.00259 1.0014 1.00722 1.00495 1.00473 1.00259 1.01055 1.00722 0.997342 0.997043 1.00473 1.00259 1.30058 1.31913 1.29848 1.31637 1.29848 1.31637 1.29659 1.31356 1.0008 1.00006 1.00115 1.00011 1.00055 1.00003 1.0008 1.00006 1.00003 0.999504 1.00006 0.999305 1.00006 0.999305 1.00011 0.999037 0.992891 0.993308 0.994978 0.995258 0.993308 0.994484 0.995258 0.996057 0.995258 0.996057 0.996648 0.997195 0.994978 0.995258 0.996456 0.996648 1.18555 1.17998 1.1919 1.18399 1.1787 1.17525 1.18555 1.17998 1.01785 1.01332 1.01957 1.01482 1.01332 1.00986 1.01482 1.01109 1.01482 1.01109 1.01532 1.01151 1.01957 1.01482 1.02014 1.01532 1.27559 1.27833 1.28473 1.28829 1.27273 1.27559 1.28106 1.28473 1.00002 0.999655 1.00003 0.999504 1.00037 1.00002 1.00055 1.00003 1.00025 1.00001 1.00037 1.00002 1.00001 0.999772 1.00002 0.999655 1.00024 1.00028 1.00039 1.00046 1.00028 1.00029 1.00046 1.00048 1.00046 1.00048 1.00073 1.00076 1.00039 1.00046 1.00062 1.00073 1.31314 1.31438 1.30968 1.31078 1.30968 1.31078 1.30614 1.30713 1.30472 1.30968 1.30161 1.30614 1.30775 1.31314 1.30472 1.30968 1.00001 1.00025 1.00002 1.00037 1.00002 1.00037 1.00003 1.00055 0.999655 1.00002 0.999504 1.00003 0.999772 1.00001 0.999655 1.00002 1.08503 1.07059 1.08478 1.07168 1.08478 1.07168 1.08477 1.07252 1.09769 1.08478 1.09701 1.08477 1.09894 1.08503 1.09769 1.08478 1.01541 1.01055 1.02034 1.01488 1.02034 1.01488 1.02362 1.01785 1.02743 1.02034 1.03081 1.02362 1.02225 1.01541 1.02743 1.02034 1.28095 1.28347 1.29176 1.29513 1.27833 1.28095 1.28829 1.29176 1.02851 1.03706 1.04794 1.05268 1.03706 1.04293 1.05268 1.05626 1.05268 1.05626 1.06945 1.07059 1.04794 1.05268 1.06874 1.06945 1.03631 1.03946 1.0469 1.04948 1.03143 1.03631 1.04293 1.0469 1.02225 1.02743 1.03143 1.03631 1.02743 1.03081 1.03631 1.03946 1.00037 1.00068 1.00055 1.001 1.00025 1.00046 1.00037 1.00068 1.00046 1.00062 1.00068 1.00093 1.00068 1.00093 1.001 1.00136 0.988613 0.990975 0.997342 0.997043 0.979561 0.98517 0.988613 0.990975 0.98517 0.989306 0.990975 0.993119 0.990975 0.993119 0.997043 0.997336 1.29461 1.29256 1.31069 1.30775 1.29659 1.29461 1.31356 1.31069 1.31069 1.31654 1.30775 1.31314 1.31356 1.31987 1.31069 1.31654 1.31987 1.32137 1.31654 1.31791 1.31654 1.31791 1.31314 1.31438 1.0008 1.00144 1.00115 1.00204 1.00055 1.001 1.0008 1.00144 1.001 1.00136 1.00144 1.00194 1.00144 1.00194 1.00204 1.00273 0.998286 1.0004 0.997809 1.00075 1.0004 1.00237 1.00075 1.00341 1.00075 1.00341 1.0014 1.00495 0.997809 1.00075 0.997336 1.0014 1.04948 1.05093 1.06062 1.06163 1.05093 1.0514 1.06163 1.06197 1.06163 1.06197 1.07304 1.07322 1.06062 1.06163 1.07252 1.07304 1.22735 1.22725 1.22179 1.22167 1.22179 1.22167 1.21602 1.2159 1.22208 1.22179 1.21638 1.21602 1.22756 1.22735 1.22208 1.22179 1.10893 1.12036 1.10831 1.11957 1.10831 1.11957 1.10811 1.11931 1.09667 1.10831 1.09656 1.10811 1.09701 1.10893 1.09667 1.10831 1.29042 1.2882 1.30472 1.30161 1.29256 1.29042 1.30775 1.30472 1.28588 1.2882 1.29841 1.30161 1.28347 1.28588 1.29513 1.29841 1.35595 1.37181 1.35769 1.37404 1.35417 1.36954 1.35595 1.37181 1.36954 1.37397 1.37181 1.3764 1.37181 1.3764 1.37404 1.37879 1.03081 1.03271 1.03946 1.04122 1.03271 1.03333 1.04122 1.04179 1.04122 1.04179 1.05093 1.0514 1.03946 1.04122 1.04948 1.05093 1.00009 1.00017 1.00015 1.00029 1.00017 1.00024 1.00029 1.00039 1.00029 1.00039 1.00046 1.00062 1.00015 1.00029 1.00025 1.00046 1.00017 1.00009 1.00024 1.00013 1.00009 1.00005 1.00017 1.00009 1.00005 1.00002 1.00009 1.00004 1.00009 1.00004 1.00013 1.00005 1.29256 1.30775 1.29042 1.30472 1.29042 1.30472 1.2882 1.30161 1.02415 1.03143 1.03706 1.04293 1.01324 1.02415 1.02851 1.03706 1.0038 1.01469 1.01324 1.02415 1.01469 1.02225 1.02415