# vtk DataFile Version 3.0
#This file was generated by the deal.II library on 2020/11/19 at 14:45:06
ASCII
DATASET UNSTRUCTURED_GRID

POINTS 31136 double
0.01 0.03 0
0.01 0.02 0
0.02 0.03 0
0.02 0.02 0
0.01 0.04 0
0.01 0.03 0
0.02 0.04 0
0.02 0.03 0
0 0.04 0
0 0.03 0
0.01 0.04 0
0.01 0.03 0
0 0.03 0
0 0.02 0
0.01 0.03 0
0.01 0.02 0
0.07 0.07 0
0.08 0.07 0
0.07 0.08 0
0.08 0.08 0
0.06 0.07 0
0.07 0.07 0
0.06 0.08 0
0.07 0.08 0
0.06 0.06 0
0.07 0.06 0
0.06 0.07 0
0.07 0.07 0
0.07 0.06 0
0.08 0.06 0
0.07 0.07 0
0.08 0.07 0
0.03 0.05 0
0.02 0.05 0
0.03 0.04 0
0.02 0.04 0
0.04 0.05 0
0.03 0.05 0
0.04 0.04 0
0.03 0.04 0
0.04 0.06 0
0.03 0.06 0
0.04 0.05 0
0.03 0.05 0
0.03 0.06 0
0.02 0.06 0
0.03 0.05 0
0.02 0.05 0
0.09 0.09 0
0.1 0.09 0
0.09 0.1 0
0.1 0.1 0
0.08 0.09 0
0.09 0.09 0
0.08 0.1 0
0.09 0.1 0
0.08 0.08 0
0.09 0.08 0
0.08 0.09 0
0.09 0.09 0
0.09 0.08 0
0.1 0.08 0
0.09 0.09 0
0.1 0.09 0
0.05 0.15 0
0.05 0.14 0
0.06 0.15 0
0.06 0.14 0
0.05 0.16 0
0.05 0.15 0
0.06 0.16 0
0.06 0.15 0
0.04 0.16 0
0.04 0.15 0
0.05 0.16 0
0.05 0.15 0
0.04 0.15 0
0.04 0.14 0
0.05 0.15 0
0.05 0.14 0
0.11 0.08 0
0.11 0.09 0
0.1 0.08 0
0.1 0.09 0
0.12 0.08 0
0.12 0.09 0
0.11 0.08 0
0.11 0.09 0
0.12 0.09 0
0.12 0.1 0
0.11 0.09 0
0.11 0.1 0
0.11 0.09 0
0.11 0.1 0
0.1 0.09 0
0.1 0.1 0
0.13 0.09 0
0.14 0.09 0
0.13 0.1 0
0.14 0.1 0
0.12 0.09 0
0.13 0.09 0
0.12 0.1 0
0.13 0.1 0
0.12 0.08 0
0.13 0.08 0
0.12 0.09 0
0.13 0.09 0
0.13 0.08 0
0.14 0.08 0
0.13 0.09 0
0.14 0.09 0
0.09 0.16 0
0.09 0.15 0
0.1 0.16 0
0.1 0.15 0
0.08 0.16 0
0.08 0.15 0
0.09 0.16 0
0.09 0.15 0
0.08 0.15 0
0.08 0.14 0
0.09 0.15 0
0.09 0.14 0
0.09 0.15 0
0.09 0.14 0
0.1 0.15 0
0.1 0.14 0
0.19 0.09 0
0.2 0.09 0
0.19 0.1 0
0.2 0.1 0
0.18 0.09 0
0.19 0.09 0
0.18 0.1 0
0.19 0.1 0
0.18 0.08 0
0.19 0.08 0
0.18 0.09 0
0.19 0.09 0
0.19 0.08 0
0.2 0.08 0
0.19 0.09 0
0.2 0.09 0
0.21 0.09 0
0.22 0.09 0
0.21 0.1 0
0.22 0.1 0
0.2 0.09 0
0.21 0.09 0
0.2 0.1 0
0.21 0.1 0
0.2 0.08 0
0.21 0.08 0
0.2 0.09 0
0.21 0.09 0
0.21 0.08 0
0.22 0.08 0
0.21 0.09 0
0.22 0.09 0
0.04 0.19 0
0.03 0.19 0
0.04 0.18 0
0.03 0.18 0
0.04 0.2 0
0.03 0.2 0
0.04 0.19 0
0.03 0.19 0
0.03 0.2 0
0.02 0.2 0
0.03 0.19 0
0.02 0.19 0
0.03 0.19 0
0.02 0.19 0
0.03 0.18 0
0.02 0.18 0
0.15 0.08 0
0.15 0.09 0
0.14 0.08 0
0.14 0.09 0
0.16 0.08 0
0.16 0.09 0
0.15 0.08 0
0.15 0.09 0
0.16 0.09 0
0.16 0.1 0
0.15 0.09 0
0.15 0.1 0
0.15 0.09 0
0.15 0.1 0
0.14 0.09 0
0.14 0.1 0
0.23 0.11 0
0.22 0.11 0
0.23 0.1 0
0.22 0.1 0
0.24 0.11 0
0.23 0.11 0
0.24 0.1 0
0.23 0.1 0
0.24 0.12 0
0.23 0.12 0
0.24 0.11 0
0.23 0.11 0
0.23 0.12 0
0.22 0.12 0
0.23 0.11 0
0.22 0.11 0
0.24 0.09 0
0.24 0.1 0
0.23 0.09 0
0.23 0.1 0
0.23 0.09 0
0.23 0.1 0
0.22 0.09 0
0.22 0.1 0
0.23 0.08 0
0.23 0.09 0
0.22 0.08 0
0.22 0.09 0
0.24 0.08 0
0.24 0.09 0
0.23 0.08 0
0.23 0.09 0
0.24 0.12 0
0.24 0.11 0
0.25 0.12 0
0.25 0.11 0
0.24 0.11 0
0.24 0.1 0
0.25 0.11 0
0.25 0.1 0
0.25 0.11 0
0.25 0.1 0
0.26 0.11 0
0.26 0.1 0
0.17 0.08 0
0.17 0.09 0
0.16 0.08 0
0.16 0.09 0
0.18 0.08 0
0.18 0.09 0
0.17 0.08 0
0.17 0.09 0
0.18 0.09 0
0.18 0.1 0
0.17 0.09 0
0.17 0.1 0
0.17 0.09 0
0.17 0.1 0
0.16 0.09 0
0.16 0.1 0
0.04 0.17 0
0.04 0.16 0
0.05 0.17 0
0.05 0.16 0
0.05 0.17 0
0.05 0.16 0
0.06 0.17 0
0.06 0.16 0
0.05 0.18 0
0.05 0.17 0
0.06 0.18 0
0.06 0.17 0
0.04 0.18 0
0.04 0.17 0
0.05 0.18 0
0.05 0.17 0
0.09 0.12 0
0.09 0.11 0
0.1 0.12 0
0.1 0.11 0
0.08 0.12 0
0.08 0.11 0
0.09 0.12 0
0.09 0.11 0
0.08 0.11 0
0.08 0.1 0
0.09 0.11 0
0.09 0.1 0
0.09 0.11 0
0.09 0.1 0
0.1 0.11 0
0.1 0.1 0
0.08 0.2 0
0.08 0.19 0
0.09 0.2 0
0.09 0.19 0
0.08 0.19 0
0.08 0.18 0
0.09 0.19 0
0.09 0.18 0
0.09 0.19 0
0.09 0.18 0
0.1 0.19 0
0.1 0.18 0
0.09 0.2 0
0.09 0.19 0
0.1 0.2 0
0.1 0.19 0
0.2 0.07 0
0.21 0.07 0
0.2 0.08 0
0.21 0.08 0
0.21 0.07 0
0.22 0.07 0
0.21 0.08 0
0.22 0.08 0
0.08 0.17 0
0.08 0.16 0
0.09 0.17 0
0.09 0.16 0
0.09 0.17 0
0.09 0.16 0
0.1 0.17 0
0.1 0.16 0
0.09 0.18 0
0.09 0.17 0
0.1 0.18 0
0.1 0.17 0
0.08 0.18 0
0.08 0.17 0
0.09 0.18 0
0.09 0.17 0
0.04 0.08 0
0.04 0.09 0
0.03 0.08 0
0.03 0.09 0
0.04 0.09 0
0.04 0.1 0
0.03 0.09 0
0.03 0.1 0
0.03 0.09 0
0.03 0.1 0
0.02 0.09 0
0.02 0.1 0
0.03 0.08 0
0.03 0.09 0
0.02 0.08 0
0.02 0.09 0
0.12 0.06 0
0.11 0.06 0
0.12 0.05 0
0.11 0.05 0
0.11 0.06 0
0.1 0.06 0
0.11 0.05 0
0.1 0.05 0
0.11 0.05 0
0.1 0.05 0
0.11 0.04 0
0.1 0.04 0
0.12 0.05 0
0.11 0.05 0
0.12 0.04 0
0.11 0.04 0
0.04 0.11 0
0.03 0.11 0
0.04 0.1 0
0.03 0.1 0
0.04 0.12 0
0.03 0.12 0
0.04 0.11 0
0.03 0.11 0
0.03 0.12 0
0.02 0.12 0
0.03 0.11 0
0.02 0.11 0
0.03 0.11 0
0.02 0.11 0
0.03 0.1 0
0.02 0.1 0
0.13 0.04 0
0.13 0.03 0
0.14 0.04 0
0.14 0.03 0
0.12 0.04 0
0.12 0.03 0
0.13 0.04 0
0.13 0.03 0
0.12 0.03 0
0.12 0.02 0
0.13 0.03 0
0.13 0.02 0
0.13 0.03 0
0.13 0.02 0
0.14 0.03 0
0.14 0.02 0
0.07 0.18 0
0.07 0.17 0
0.08 0.18 0
0.08 0.17 0
0.06 0.18 0
0.06 0.17 0
0.07 0.18 0
0.07 0.17 0
0.06 0.17 0
0.06 0.16 0
0.07 0.17 0
0.07 0.16 0
0.07 0.17 0
0.07 0.16 0
0.08 0.17 0
0.08 0.16 0
0.01 0.06 0
0.02 0.06 0
0.01 0.07 0
0.02 0.07 0
0.01 0.07 0
0.02 0.07 0
0.01 0.08 0
0.02 0.08 0
0 0.07 0
0.01 0.07 0
0 0.08 0
0.01 0.08 0
0 0.06 0
0.01 0.06 0
0 0.07 0
0.01 0.07 0
0.07 0.19 0
0.07 0.18 0
0.08 0.19 0
0.08 0.18 0
0.07 0.2 0
0.07 0.19 0
0.08 0.2 0
0.08 0.19 0
0.06 0.2 0
0.06 0.19 0
0.07 0.2 0
0.07 0.19 0
0.06 0.19 0
0.06 0.18 0
0.07 0.19 0
0.07 0.18 0
0.12 0.11 0
0.12 0.1 0
0.13 0.11 0
0.13 0.1 0
0.13 0.11 0
0.13 0.1 0
0.14 0.11 0
0.14 0.1 0
0.13 0.12 0
0.13 0.11 0
0.14 0.12 0
0.14 0.11 0
0.12 0.12 0
0.12 0.11 0
0.13 0.12 0
0.13 0.11 0
0.04 0.06 0
0.04 0.05 0
0.05 0.06 0
0.05 0.05 0
0.04 0.05 0
0.04 0.04 0
0.05 0.05 0
0.05 0.04 0
0.05 0.05 0
0.05 0.04 0
0.06 0.05 0
0.06 0.04 0
0.05 0.06 0
0.05 0.05 0
0.06 0.06 0
0.06 0.05 0
0.05 0.06 0
0.06 0.06 0
0.05 0.07 0
0.06 0.07 0
0.05 0.07 0
0.06 0.07 0
0.05 0.08 0
0.06 0.08 0
0.04 0.07 0
0.05 0.07 0
0.04 0.08 0
0.05 0.08 0
0.04 0.06 0
0.05 0.06 0
0.04 0.07 0
0.05 0.07 0
0.15 0.03 0
0.14 0.03 0
0.15 0.02 0
0.14 0.02 0
0.15 0.04 0
0.14 0.04 0
0.15 0.03 0
0.14 0.03 0
0.01 0.05 0
0.01 0.04 0
0.02 0.05 0
0.02 0.04 0
0.01 0.06 0
0.01 0.05 0
0.02 0.06 0
0.02 0.05 0
0 0.06 0
0 0.05 0
0.01 0.06 0
0.01 0.05 0
0 0.05 0
0 0.04 0
0.01 0.05 0
0.01 0.04 0
0.05 0.19 0
0.05 0.18 0
0.06 0.19 0
0.06 0.18 0
0.05 0.2 0
0.05 0.19 0
0.06 0.2 0
0.06 0.19 0
0.04 0.2 0
0.04 0.19 0
0.05 0.2 0
0.05 0.19 0
0.04 0.19 0
0.04 0.18 0
0.05 0.19 0
0.05 0.18 0
0.15 0.07 0
0.15 0.08 0
0.14 0.07 0
0.14 0.08 0
0.15 0.06 0
0.15 0.07 0
0.14 0.06 0
0.14 0.07 0
0.16 0.06 0
0.16 0.07 0
0.15 0.06 0
0.15 0.07 0
0.16 0.07 0
0.16 0.08 0
0.15 0.07 0
0.15 0.08 0
0.18 0.06 0
0.17 0.06 0
0.18 0.05 0
0.17 0.05 0
0.17 0.06 0
0.16 0.06 0
0.17 0.05 0
0.16 0.05 0
0.15 0.00999999 0
0.15 0.02 0
0.14 0.01 0
0.14 0.02 0
0.15 0 0
0.15 0.00999999 0
0.14 0 0
0.14 0.01 0
0.03 0.07 0
0.03 0.08 0
0.02 0.07 0
0.02 0.08 0
0.03 0.06 0
0.03 0.07 0
0.02 0.06 0
0.02 0.07 0
0.04 0.06 0
0.04 0.07 0
0.03 0.06 0
0.03 0.07 0
0.04 0.07 0
0.04 0.08 0
0.03 0.07 0
0.03 0.08 0
0.06 0.03 0
0.06 0.02 0
0.07 0.03 0
0.07 0.02 0
0.07 0.03 0
0.07 0.02 0
0.08 0.03 0
0.08 0.02 0
0.07 0.04 0
0.07 0.03 0
0.08 0.04 0
0.08 0.03 0
0.06 0.04 0
0.06 0.03 0
0.07 0.04 0
0.07 0.03 0
0.13 0.07 0
0.14 0.07 0
0.13 0.08 0
0.14 0.08 0
0.12 0.07 0
0.13 0.07 0
0.12 0.08 0
0.13 0.08 0
0.12 0.06 0
0.13 0.06 0
0.12 0.07 0
0.13 0.07 0
0.13 0.06 0
0.14 0.06 0
0.13 0.07 0
0.14 0.07 0
0.12 0.04 0
0.11 0.04 0
0.12 0.03 0
0.11 0.03 0
0.11 0.04 0
0.1 0.04 0
0.11 0.03 0
0.1 0.03 0
0.11 0.03 0
0.1 0.03 0
0.11 0.02 0
0.1 0.02 0
0.12 0.03 0
0.11 0.03 0
0.12 0.02 0
0.11 0.02 0
0.16 0.05 0
0.15 0.05 0
0.16 0.04 0
0.15 0.04 0
0.16 0.06 0
0.15 0.06 0
0.16 0.05 0
0.15 0.05 0
0.15 0.06 0
0.14 0.06 0
0.15 0.05 0
0.14 0.05 0
0.15 0.05 0
0.14 0.05 0
0.15 0.04 0
0.14 0.04 0
0.01 0.11 0
0.01 0.1 0
0.02 0.11 0
0.02 0.1 0
0.01 0.12 0
0.01 0.11 0
0.02 0.12 0
0.02 0.11 0
0 0.12 0
0 0.11 0
0.01 0.12 0
0.01 0.11 0
0 0.11 0
0 0.1 0
0.01 0.11 0
0.01 0.1 0
0 0.09 0
0.01 0.09 0
0 0.1 0
0.01 0.1 0
0 0.08 0
0.01 0.08 0
0 0.09 0
0.01 0.09 0
0.01 0.08 0
0.02 0.08 0
0.01 0.09 0
0.02 0.09 0
0.01 0.09 0
0.02 0.09 0
0.01 0.1 0
0.02 0.1 0
0.18 0.06 0
0.18 0.07 0
0.17 0.06 0
0.17 0.07 0
0.18 0.07 0
0.18 0.08 0
0.17 0.07 0
0.17 0.08 0
0.17 0.07 0
0.17 0.08 0
0.16 0.07 0
0.16 0.08 0
0.17 0.06 0
0.17 0.07 0
0.16 0.06 0
0.16 0.07 0
0.09 0.07 0
0.1 0.07 0
0.09 0.08 0
0.1 0.08 0
0.08 0.07 0
0.09 0.07 0
0.08 0.08 0
0.09 0.08 0
0.08 0.06 0
0.09 0.06 0
0.08 0.07 0
0.09 0.07 0
0.09 0.06 0
0.1 0.06 0
0.09 0.07 0
0.1 0.07 0
0.21 0.13 0
0.21 0.12 0
0.22 0.13 0
0.22 0.12 0
0.2 0.13 0
0.2 0.12 0
0.21 0.13 0
0.21 0.12 0
0.13 0 0
0.14 0 0
0.13 0.01 0
0.14 0.01 0
0.13 0.01 0
0.14 0.01 0
0.13 0.02 0
0.14 0.02 0
0.12 0.01 0
0.13 0.01 0
0.12 0.02 0
0.13 0.02 0
0.12 0 0
0.13 0 0
0.12 0.01 0
0.13 0.01 0
0.12 0.05 0
0.12 0.04 0
0.13 0.05 0
0.13 0.04 0
0.13 0.05 0
0.13 0.04 0
0.14 0.05 0
0.14 0.04 0
0.13 0.06 0
0.13 0.05 0
0.14 0.06 0
0.14 0.05 0
0.12 0.06 0
0.12 0.05 0
0.13 0.06 0
0.13 0.05 0
0.11 0.06 0
0.11 0.07 0
0.1 0.06 0
0.1 0.07 0
0.12 0.06 0
0.12 0.07 0
0.11 0.06 0
0.11 0.07 0
0.12 0.07 0
0.12 0.08 0
0.11 0.07 0
0.11 0.08 0
0.11 0.07 0
0.11 0.08 0
0.1 0.07 0
0.1 0.08 0
0.18 0.07 0
0.19 0.07 0
0.18 0.08 0
0.19 0.08 0
0.18 0.06 0
0.19 0.06 0
0.18 0.07 0
0.19 0.07 0
0.19 0.06 0
0.2 0.06 0
0.19 0.07 0
0.2 0.07 0
0.19 0.07 0
0.2 0.07 0
0.19 0.08 0
0.2 0.08 0
0.15 0.16 0
0.14 0.16 0
0.15 0.15 0
0.14 0.15 0
0.15 0.15 0
0.14 0.15 0
0.15 0.14 0
0.14 0.14 0
0.16 0.15 0
0.15 0.15 0
0.16 0.14 0
0.15 0.14 0
0.16 0.16 0
0.15 0.16 0
0.16 0.15 0
0.15 0.15 0
0.09 0.06 0
0.09 0.05 0
0.1 0.06 0
0.1 0.05 0
0.08 0.06 0
0.08 0.05 0
0.09 0.06 0
0.09 0.05 0
0.08 0.05 0
0.08 0.04 0
0.09 0.05 0
0.09 0.04 0
0.09 0.05 0
0.09 0.04 0
0.1 0.05 0
0.1 0.04 0
0.12 0 0
0.12 0.01 0
0.11 0 0
0.11 0.01 0
0.12 0.01 0
0.12 0.02 0
0.11 0.01 0
0.11 0.02 0
0.11 0.01 0
0.11 0.02 0
0.1 0.01 0
0.1 0.02 0
0.11 0 0
0.11 0.01 0
0.1 0 0
0.1 0.01 0
0.16 0.12 0
0.15 0.12 0
0.16 0.11 0
0.15 0.11 0
0.15 0.12 0
0.14 0.12 0
0.15 0.11 0
0.14 0.11 0
0.15 0.11 0
0.14 0.11 0
0.15 0.1 0
0.14 0.1 0
0.16 0.11 0
0.15 0.11 0
0.16 0.1 0
0.15 0.1 0
0.07 0.05 0
0.07 0.04 0
0.08 0.05 0
[...]
POINT_DATA 31136
SCALARS solution_0 double 1
LOOKUP_TABLE default
0.999962 0.999947 0.999841 0.99978 0.99998 0.999962 0.999917 0.999841 1 1 0.99998 0.999962 1 1 0.999962 0.999947 1.00254 1.00366 1.00345 1.00496 1.00171 1.00254 1.00233 1.00345 1.00092 1.00137 1.00171 1.00254 1.00137 1.002 1.00254 1.00366 1 1 0.999811 0.999917 1.00001 1 0.999653 0.999811 1.00036 1.0002 1.00001 1 1.0002 1.00009 1 1 1.00814 1.01133 1.00853 1.01186 1.00578 1.00814 1.00606 1.00853 1.00496 1.00701 1.00578 1.00814 1.00701 1.00978 1.00814 1.01133 1.00002 1.0006 1.00003 1.00092 0.999432 1.00002 0.999131 1.00003 0.999653 1.00001 0.999432 1.00002 1.00001 1.00036 1.00002 1.0006 1.01353 1.0156 1.00978 1.01133 1.0186 1.02131 1.01353 1.0156 1.02131 1.02223 1.0156 1.01631 1.0156 1.01631 1.01133 1.01186 1.02887 1.03878 1.03004 1.04022 1.02131 1.02887 1.02223 1.03004 1.0186 1.02539 1.02131 1.02887 1.02539 1.03445 1.02887 1.03878 0.997478 1.00022 0.996554 1.0004 0.998188 1.00012 0.997478 1.00022 1.00012 1.002 1.00022 1.00287 1.00022 1.00287 1.0004 1.0041 1.14051 1.17203 1.14265 1.17404 1.1123 1.14051 1.11449 1.14265 1.1055 1.13384 1.1123 1.14051 1.13384 1.16564 1.14051 1.17203 1.20572 1.2402 1.20767 1.24222 1.17203 1.20572 1.17404 1.20767 1.16564 1.19948 1.17203 1.20572 1.19948 1.23349 1.20572 1.2402 0.998902 0.999403 0.999069 0.999494 0.998844 0.999372 0.998902 0.999403 0.999372 0.999726 0.999403 0.99974 0.999403 0.99974 0.999494 0.99978 1.04639 1.0516 1.03445 1.03878 1.06186 1.06786 1.04639 1.0516 1.06786 1.06983 1.0516 1.05332 1.0516 1.05332 1.03878 1.04022 1.27396 1.2402 1.27636 1.24222 1.30579 1.27396 1.30886 1.27636 1.29555 1.26608 1.30579 1.27396 1.26608 1.23349 1.27396 1.2402 1.30579 1.30886 1.27396 1.27636 1.27396 1.27636 1.2402 1.24222 1.26608 1.27396 1.23349 1.2402 1.29555 1.30579 1.26608 1.27396 1.29555 1.30579 1.32191 1.33486 1.30579 1.30886 1.33486 1.33868 1.33486 1.33868 1.36048 1.36576 1.08145 1.08802 1.06186 1.06786 1.1055 1.1123 1.08145 1.08802 1.1123 1.11449 1.08802 1.09016 1.08802 1.09016 1.06786 1.06983 0.999328 0.999653 0.998898 0.999432 0.998898 0.999432 0.998307 0.999131 0.99847 0.998898 0.997645 0.998307 0.999069 0.999328 0.99847 0.998898 1.00701 1.00814 1.00978 1.01133 1.00496 1.00578 1.00701 1.00814 1.00578 1.00606 1.00814 1.00853 1.00814 1.00853 1.01133 1.01186 0.993708 0.994034 0.991032 0.991504 0.994034 0.994971 0.991504 0.99286 0.991504 0.99286 0.988014 0.98997 0.991032 0.991504 0.98733 0.988014 1.15391 1.18748 1.16564 1.19948 1.18748 1.22023 1.19948 1.23349 0.99641 0.998188 0.994933 0.997478 0.994933 0.997478 0.99294 0.996554 0.99286 0.994933 0.98997 0.99294 0.994971 0.99641 0.99286 0.994933 1.00093 1.00108 1.0005 1.00059 1.00108 1.00114 1.00059 1.00062 1.00059 1.00062 1.00026 1.00027 1.0005 1.00059 1.00022 1.00026 1.00835 1.00584 1.00141 1.00076 1.00584 1.0041 1.00076 1.0004 1.00076 1.0004 0.995379 0.996554 1.00141 1.00076 0.993939 0.995379 1.00108 1.00059 1.00114 1.00062 1.00093 1.0005 1.00108 1.00059 1.0005 1.00022 1.00059 1.00026 1.00059 1.00026 1.00062 1.00027 0.992287 0.981988 0.99064 0.975956 0.993939 0.986689 0.992287 0.981988 0.986689 0.980544 0.981988 0.973018 0.981988 0.973018 0.975956 0.96267 0.996514 0.997501 0.994971 0.99641 0.997645 0.998307 0.996514 0.997501 0.998307 0.999131 0.997501 0.998727 0.997501 0.998727 0.99641 0.998188 1.00002 1.00009 1.00004 1.00016 1.00004 1.00016 1.00005 1.00022 1 1.00004 1 1.00005 1 1.00002 1 1.00004 0.995874 0.996514 0.994034 0.994971 0.995652 0.995874 0.993708 0.994034 0.997068 0.997216 0.995652 0.995874 0.997216 0.997645 0.995874 0.996514 1.02131 1.02223 1.02887 1.03004 1.02887 1.03004 1.03878 1.04022 1.02539 1.02887 1.03445 1.03878 1.0186 1.02131 1.02539 1.02887 1.00036 1.00001 1.0006 1.00002 1.00001 0.999653 1.00002 0.999432 1.00002 0.999432 1.00003 0.999131 1.0006 1.00002 1.00092 1.00003 1.0006 1.00092 1.00111 1.00171 1.00111 1.00171 1.00152 1.00233 1.00068 1.00111 1.00093 1.00152 1.00036 1.0006 1.00068 1.00111 0.968715 0.975956 0.948148 0.96267 0.989633 0.99064 0.968715 0.975956 1 0.99998 1 0.999917 1.00002 1 1.00009 1 1 1 1.00002 1 1 1 1 0.99998 0.998194 0.99847 0.997216 0.997645 0.998098 0.998194 0.997068 0.997216 0.998844 0.998902 0.998098 0.998194 0.998902 0.999069 0.998194 0.99847 1.03759 1.04639 1.02725 1.03445 1.02509 1.03759 1.0173 1.02725 1.03647 1.05155 1.02509 1.03759 1.05155 1.06186 1.03759 1.04639 1.07476 1.05272 1.04763 1.02809 1.05272 1.03647 1.02809 1.0162 0.932796 0.948148 0.953163 0.96267 0.927012 0.932796 0.9497 0.953163 1.00037 1.0005 1.00016 1.00022 1.0002 1.00037 1.00009 1.00016 1.00036 1.00068 1.0002 1.00037 1.00068 1.00093 1.00037 1.0005 0.998307 0.997645 0.997501 0.996514 0.997501 0.996514 0.99641 0.994971 0.998727 0.997501 0.998188 0.99641 0.999131 0.998307 0.998727 0.997501 1.0197 1.02725 1.02539 1.03445 1.0142 1.0197 1.0186 1.02539 1.00835 1.01198 1.0142 1.0197 1.01198 1.0173 1.0197 1.02725 0.993939 0.995379 0.986689 0.990262 0.995379 0.996554 0.990262 0.99294 0.990262 0.99294 0.986003 0.98997 0.986689 0.990262 0.980544 0.986003 1.0162 1.00897 0.990842 0.989633 1.03647 1.02509 1.0162 1.00897 1.02509 1.0173 1.00897 1.00488 1.00897 1.00488 0.989633 0.99064 1.00006 1.00006 1.00026 1.00027 1.00005 1.00006 1.00022 1.00026 1 1 1.00005 1.00006 1 1 1.00006 1.00006 1 1.00006 1 1.00006 1 1.00005 1 1.00006 1.00005 1.00022 1.00006 1.00026 1.00006 1.00026 1.00006 1.00027 1.07476 1.09338 1.05272 1.06995 1.09338 1.1055 1.06995 1.08145 1.06995 1.08145 1.05155 1.06186 1.05272 1.06995 1.03647 1.05155 1.0052 1.00731 1.00701 1.00978 1.00366 1.0052 1.00496 1.00701 1.002 1.00287 1.00366 1.0052 1.00287 1.0041 1.0052 1.00731 1.18748 1.19948 1.22023 1.23349 1.15391 1.16564 1.18748 1.19948 0.964608 0.9497 0.96683 0.953163 0.96683 0.953163 0.973018 0.96267 0.976394 0.96683 0.980544 0.973018 0.974925 0.964608 0.976394 0.96683 1.00141 0.993939 1.00262 0.992287 1.00262 0.992287 1.00488 0.99064 1.01198 1.00262 1.0173 1.00488 1.00835 1.00141 1.01198 1.00262 1.00584 1.01021 1.0041 1.00731 1.00835 1.0142 1.00584 1.01021 1.0142 1.0186 1.01021 1.01353 1.01021 1.01353 1.00731 1.00978 1.09338 1.1218 1.1055 1.13384 1.07476 1.10242 1.09338 1.1218 1.10242 1.13474 1.1218 1.15391 1.1218 1.15391 1.13384 1.16564 0.989633 0.99064 1.00897 1.00488 1.00897 1.00488 1.02509 1.0173 1.0162 1.00897 1.03647 1.02509 0.990842 0.989633 1.0162 1.00897 1.00287 1.00022 1.0041 1.0004 1.002 1.00012 1.00287 1.00022 1.00012 0.998188 1.00022 0.997478 1.00022 0.997478 1.0004 0.996554 0.974925 0.976394 0.982173 0.983169 0.976394 0.980544 0.983169 0.986003 0.983169 0.986003 0.988014 0.98997 0.982173 0.983169 0.98733 0.988014 1.06186 1.04639 1.06786 1.0516 1.04639 1.03445 1.0516 1.03878 1.0516 1.03878 1.05332 1.04022 1.06786 1.0516 1.06983 1.05332 1.00006 0.998727 1.00012 0.998188 1.00137 1.00006 1.002 1.00012 1.00092 1.00003 1.00137 1.00006 1.00003 0.999131 1.00006 0.998727 1.00093 1.00108 1.00152 1.00178 1.00108 1.00114 1.00178 1.00187 1.00178 1.00187 1.00273 1.00287 1.00152 1.00178 1.00233 1.00273 1.00003 1.00092 1.00006 1.00137 1.00006 1.00137 1.00012 1.002 0.998727 1.00006 0.998188 1.00012 0.999131 1.00003 0.998727 1.00006 1.25011 1.22023 1.26608 1.23349 1.05272 1.03647 1.06995 1.05155 1.06995 1.05155 1.08145 1.06186 1.09338 1.06995 1.1055 1.08145 1.07476 1.05272 1.09338 1.06995 1.1218 1.13384 1.15391 1.16564 1.10242 1.1218 1.13474 1.15391 1.07476 1.09338 1.10242 1.1218 1.09338 1.1055 1.1218 1.13384 1.00137 1.00254 1.002 1.00366 1.00092 1.00171 1.00137 1.00254 1.00171 1.00233 1.00254 1.00345 1.00254 1.00345 1.00366 1.00496 0.948148 0.96267 0.968715 0.975956 0.968715 0.975956 0.989633 0.99064 1.00287 1.0052 1.0041 1.00731 1.002 1.00366 1.00287 1.0052 1.00366 1.00496 1.0052 1.00701 1.0052 1.00701 1.00731 1.00978 0.993939 1.00141 0.992287 1.00262 1.00141 1.00835 1.00262 1.01198 1.00262 1.01198 1.00488 1.0173 0.992287 1.00262 0.99064 1.00488 1.16564 1.17203 1.19948 1.20572 1.17203 1.17404 1.20572 1.20767 1.20572 1.20767 1.2402 1.24222 1.19948 1.20572 1.23349 1.2402 1.33486 1.36048 1.33868 1.36576 1.30579 1.33486 1.30886 1.33868 1.29555 1.32191 1.30579 1.33486 1.1055 1.1123 1.13384 1.14051 1.1123 1.11449 1.14051 1.14265 1.14051 1.14265 1.17203 1.17404 1.13384 1.14051 1.16564 1.17203 1.00036 1.00068 1.0006 1.00111 1.00068 1.00093 1.00111 1.00152 1.00111 1.00152 1.00171 1.00233 1.0006 1.00111 1.00092 1.00171 1.00068 1.00037 1.00093 1.0005 1.00036 1.0002 1.00068 1.00037 1.0002 1.00009 1.00037 1.00016 1.00037 1.00016 1.0005 1.00022 0.982173 0.98733 0.983169 0.988014 0.983169 0.988014 0.986003 0.98997 0.976394 0.983169 0.980544 0.986003 0.974925 0.982173 0.976394 0.983169 1.25011 1.26608 1.22023 1.23349 1.00076 1.0004 1.00584 1.0041 1.00141 1.00076 1.00835 1.00584 0.993939 0.995379 1.00141 1.00076 0.995379 0.996554 1.00076 1.0004 1.02509 1.0173 1.03759 1.02725 1.03759 1.02725 1.04639 1.03445 1.05155 1.03759 1.06186 1.04639 1.03647 1.02509 1.05155 1.03759 1.00345 1.00496 1.00403 1.00578 1.00403 1.00578 1.00422 1.00606 1.00273 1.00403 1.00287 1.00422 1.00233 1.00345 1.00273 1.00403 1.00233 1.00273 1.00345 1.00403 1.00273 1.00287 1.00403 1.00422 1.00403 1.00422 1.00578 1.00606 1.00345 1.00403 1.00496 1.00578 1.00108 1.00178 1.00114 1.00187 1.00093 1.00152 1.00108 1.00178 1.00152 1.00233 1.00178 1.00273 1.00178 1.00273 1.00187 1.00287 1.0197 1.02539 1.02725 1.03445 1.01198 1.0197 1.0173 1.02725 1.00835 1.0142 1.01198 1.0197 1.0142 1.0186 1.0197 1.02539 1.01021 1.00731 1.01353 1.00978 1.0142 1.01021 1.0186 1.01353 1.00835 1.00584 1.0142 1.01021 1.00584 1.0041 1.01021 1.00731 1.1123 1.08802 1.11449 1.09016 1.1055 1.08145 1.1123 1.08802 1.08145 1.06186 1.08802 1.06786 1.08802 1.06786 1.09016 1.06983 0.927012 0.9497 0.932796 0.953163 0.932796 0.953163 0.948148 0.96267 1.04763 1.02809 1.07476 1.05272 1.02809 1.0162 1.05272 1.03647 1.0186 1.01353 1.02131 1.0156 1.01353 1.00978 1.0156 1.01133 1.0156 1.01133 1.01631 1.01186 1.02131 1.0156 1.02223 1.01631 0.999069 0.999494 0.999328 0.999635 0.999494 0.99978 0.999635 0.999841 0.999635 0.999841 0.999811 0.999917 0.999328 0.999635 0.999653 0.999811 0.974925 0.976394 0.964608 0.96683 0.976394 0.980544 0.96683 0.973018 0.96683 0.973018 0.953163 0.96267 0.964608 0.96683 0.9497 0.953163 0.980544 0.986003 0.986689 0.990262 0.986003 0.98997 0.990262 0.99294 0.990262 0.99294 0.995379 0.996554 0.986689 0.990262 0.993939 0.995379 0.998844 0.998098 0.998902 0.998194 0.998098 0.997068 0.998194 0.997216 0.998194 0.997216 0.99847 0.997645 0.998902 0.998194 0.999069 0.99847 0.999403 0.999494 0.99974 0.99978 0.999372 0.999403 0.999726 0.99974 0.998844 0.998902 0.999372 0.999403 0.998902 0.999069 0.999403 0.999494 0.981988 0.992287 0.975956 0.99064 0.973018 0.981988 0.96267 0.975956 0.980544 0.986689 0.973018 0.981988 0.986689 0.993939 0.981988 0.992287 0.999653 0.999811 1.00001 1 0.999811 0.999917 1 1 1 1 1.0002 1.00009 1.00001 1 1.00036 1.0002 1 0.999938 1 0.999947 1 0.999934 1 0.999938 0.999934 0.999726 0.999938 0.99974 0.999938 0.99974 0.999947 0.99978 0.999432 0.998898 0.999131 0.998307 0.999653 0.999328 0.999432 0.998898 0.999328 0.999069 0.998898 0.99847 0.998898 0.99847 0.998307 0.997645 0.997216 0.995874 0.997645 0.996514 0.997068 0.995652 0.997216 0.995874 0.995652 0.993708 0.995874 0.994034 0.995874 0.994034 0.996514 0.994971 1.00004 1.00005 1.00016 1.00022 1.00002 1.00004 1.00009 1.00016 1 1 1.00002 1.00004 1 1 1.00004 1.00005 0.999934 0.999938 0.999726 0.99974 1 1 0.999934 0.999938 1 1 0.999938 0.999947 0.999938 0.999947 0.99974 0.99978 0.993708 0.991032 0.994034 0.991504 0.991032 0.98733 0.991504 0.988014 0.991504 0.988014 0.99286 0.98997 0.994034 0.991504 0.994971 0.99286 1 1 1 1.00002 1 1.00002 1 1.00009 0.99998 1 0.999917 1 1 1 0.99998 1 0.999635 0.999841 0.999494 0.99978 0.999328 0.999635 0.999069 0.999494 0.999653 0.999811 0.999328 0.999635 0.999811 0.999917 0.999635 0.999841 0.997478 0.994933 0.996554 0.99294 0.998188 0.99641 0.997478 0.994933 0.99641 0.994971 0.994933 0.99286 0.994933 0.99286 0.99294 0.98997 1 1 0.999962 0.99998 0.999962 0.99998 0.999841 0.999917 0.999947 0.999962 0.99978 0.999841 1 1 0.999947 0.999962 1.26181 1.26197 1.31497 1.31478 1.26197 1.26214 1.31478 1.31456 1.31497 1.31478 1.36046 1.35991 1.31478 1.31456 1.35991 1.35929 1.26214 1.26233 1.31456 1.31432 1.26233 1.26253 1.31432 1.31403 1.31456 1.31432 1.35929 1.35859 1.31432 1.31403 1.35859 1.3578 1.13341 1.13432 1.20182 1.2024 1.13432 1.13533 1.2024 1.20303 1.20182 1.2024 1.26214 1.26233 1.2024 1.20303 1.26233 1.26253 1.13184 1.13258 1.20081 1.20129 1.13258 1.13341 1.20129 1.20182 1.20081 1.20129 1.26181 1.26197 1.20129 1.20182 1.26197 1.26214 0.969634 0.970701 1.0548 1.05574 0.970701 0.971893 1.05574 1.05679 1.0548 1.05574 1.13184 1.13258 1.05574 1.05679 1.13258 1.13341 0.971893 0.973224 1.05679 1.05795 0.973224 0.974709 1.05795 1.05925 1.05679 1.05795 1.13341 1.13432 1.05795 1.05925 1.13432 1.13533 1.12604 1.12613 1.19701 1.19706 1.12613 1.12622 1.19706 1.19713 1.19701 1.19706 1.26041 1.26044 1.19706 1.19713 1.26044 1.26046 0.961377 0.961504 1.0475 1.04761 0.961504 0.961644 1.04761 1.04773 1.0475 1.04761 1.12604 1.12613 1.04761 1.04773 1.12613 1.12622 0.961644 0.961799 1.04773 1.04787 0.961799 0.961972 1.04787 1.04802 1.04773 1.04787 1.12622 1.12633 1.04787 1.04802 1.12633 1.12645 1.12622 1.12633 1.19713 1.1972 1.12633 1.12645 1.1972 1.19728 1.19713 1.1972 1.26046 1.26049 1.1972 1.19728 1.26049 1.26052 1.1252 1.19647 1.1252 1.19648 1.19647 1.26024 1.19648 1.26025 1.1252 1.19648 1.1252 1.19648 1.19648 1.26025 1.19648 1.26025 0.76794 0.768239 0.869244 0.869548 0.768239 0.768571 0.869548 0.869887 0.869244 0.869548 0.962873 0.963164 0.869548 0.869887 0.963164 0.963488 0.542369 0.542609 0.658975 0.659252 0.542609 0.542876 0.659252 0.659559 0.658975 0.659252 0.76794 0.768239 0.659252 0.659559 0.768239 0.768571 0.542876 0.543172 0.659559 0.659902 0.543172 0.543502 0.659902 0.660282 0.659559 0.659902 0.768571 0.768941 0.659902 0.660282 0.768941 0.769353 0.768571 0.768941 0.869887 0.870264 0.768941 0.769353 0.870264 0.870683 0.869887 0.870264 0.963488 0.963848 0.870264 0.870683 0.963848 0.964249 0.777238 0.778625 0.8787 0.880103 0.778625 0.78018 0.880103 0.881674 0.8787 0.880103 0.971893 0.973224 0.880103 0.881674 0.973224 0.974709 0.774895 0.776001 0.876323 0.877445 0.776001 0.777238 0.877445 0.8787 0.876323 0.877445 0.969634 0.970701 0.877445 0.8787 0.970701 0.971893 0.547934 0.54882 0.665407 0.66643 0.54882 0.549814 0.66643 0.667578 0.665407 0.66643 0.774895 0.776001 0.66643 0.667578 0.776001 0.777238 0.549814 0.550929 0.667578 0.668864 0.550929 0.552183 0.668864 0.670309 0.667578 0.668864 0.777238 0.778625 0.668864 0.670309 0.778625 0.78018 1.13418 1.1103 1.14646 1.11996 1.1103 1.07961 1.11996 1.08562 1.14646 1.11996 1.15655 1.12699 1.11996 1.08562 1.12699 1.08815 1.10468 1.08384 1.12004 1.09799 1.08384 1.05769 1.09799 1.07002 1.12004 1.09799 1.13418 1.1103 1.09799 1.07002 1.1103 1.07961 1.17408 1.1726 1.20999 1.20504 1.1726 1.16937 1.20504 1.19839 1.20999 1.20504 1.23776 1.22991 1.20504 1.19839 1.22991 1.22052 1.16937 1.16406 1.19839 1.18988 1.16406 1.15655 1.18988 1.17934 1.19839 1.18988 1.22052 1.20946 1.18988 1.17934 1.20946 1.1968 0.766397 0.766528 0.867677 0.867809 0.766528 0.766673 0.867809 0.867956 0.867677 0.867809 0.961377 0.961504 0.867809 0.867956 0.961504 0.961644 0.541127 0.541233 0.657544 0.657666 0.541233 0.54135 0.657666 0.657801 0.657544 0.657666 0.766397 0.766528 0.657666 0.657801 0.766528 0.766673 0.54135 0.541479 0.657801 0.65795 0.541479 0.541623 0.65795 0.658115 0.657801 0.65795 0.766673 0.766833 0.65795 0.658115 0.766833 0.767011 0.766673 0.766833 0.867956 0.868119 0.766833 0.767011 0.868119 0.8683 0.867956 0.868119 0.961644 0.961799 0.868119 0.8683 0.961799 0.961972 1.4403 1.46655 1.4403 1.46656 1.46655 1.48531 1.46656 1.48532 1.4403 1.46656 1.44031 1.46657 1.46656 1.48532 1.46657 1.48532 1.48531 1.49656 1.48532 1.49657 1.49656 1.50031 1.49657 1.50032 1.48532 1.49657 1.48532 1.49658 1.49657 1.50032 1.49658 1.50033 1.48532 1.49658 1.48533 1.49659 1.49658 1.50033 1.49659 1.50034 1.48533 1.49659 1.48534 1.4966 1.49659 1.50034 1.4966 1.50035 1.44031 1.46657 1.44031 1.46657 1.46657 1.48532 1.46657 1.48533 1.44031 1.46657 1.44032 1.46658 1.46657 1.48533 1.46658 1.48534 1.26335 1.26354 1.31228 1.31163 1.26354 1.2637 1.31163 1.31086 1.31228 1.31163 1.35342 1.35193 1.31163 1.31086 1.35193 1.35022 1.2637 1.26381 1.31086 1.30994 1.26381 1.26386 1.30994 1.30885 1.31086 1.30994 1.35022 1.34828 1.30994 1.30885 1.34828 1.34605 0 0 0.146302 0.146305 0 0 0.146305 0.146307 0.146302 0.146305 0.2851 0.285105 0.146305 0.146307 0.285105 0.285111 0.2851 0.285105 0.416394 0.416401 0.285105 0.285111 0.416401 0.416409 0.416394 0.416401 0.540183 0.540191 0.416401 0.416409 0.540191 0.540201 0.285092 0.285096 0.416383 0.416388 0.285096 0.2851 0.416388 0.416394 0.416383 0.416388 0.540168 0.540175 0.416388 0.416394 0.540175 0.540183 0 0 0.146298 0.1463 0 0 0.1463 0.146302 0.146298 0.1463 0.285092 0.285096 0.1463 0.146302 0.285096 0.2851 0 0.146291 0 0.146293 0.146291 0.28508 0.146293 0.285082 0 0.146293 0 0.146294 0.146293 0.285082 0.146294 0.285085 0.28508 0.416365 0.285082 0.416369 0.416365 0.540146 0.416369 0.540151 0.285082 0.416369 0.285085 0.416373 0.416369 0.540151 0.416373 0.540156 0.285085 0.416373 0.285089 0.416377 0.416373 0.540156 0.416377 0.540162 0.285089 0.416377 0.285092 0.416382 0.416377 0.540162 0.416382 0.540168 0 0.146294 0 0.146296 0.146294 0.285085 0.146296 0.285089 0 0.146296 0 0.146298 0.146296 0.285089 0.146298 0.285092 0.285123 0.416426 0.285116 0.416417 0.416426 0.540222 0.416417 0.540211 0.285116 0.416417 0.285111 0.416409 0.416417 0.540211 0.416409 0.540201 0 0.146314 0 0.146311 0.146314 0.285123 0.146311 0.285116 0 0.146311 0 0.146307 0.146311 0.285116 0.146307 0.285111 0 0.146322 0 0.146318 0.146322 0.285138 0.146318 0.28513 0 0.146318 0 0.146314 0.146318 0.28513 0.146314 0.285123 0.285138 0.416447 0.28513 0.416436 0.416447 0.540248 0.416436 0.540234 0.28513 0.416436 0.285123 0.416426 0.416436 0.540234 0.416426 0.540222 1.12546 1.19663 1.12543 1.19661 1.19663 1.26028 1.19661 1.26028 1.12543 1.19661 1.12541 1.1966 1.19661 1.26028 1.1966 1.26027 1.12541 1.1966 1.12539 1.19659 1.1966 1.26027 1.19659 1.26027 1.12539 1.19659 1.12538 1.19658 1.19659 1.26027 1.19658 1.26027 0.960479 1.04671 0.960451 1.04668 1.04671 1.12541 1.04668 1.12539 0.960451 1.04668 0.960426 1.04666 1.04668 1.12539 1.04666 1.12538 0.960544 1.04676 0.96051 1.04673 1.04676 1.12546 1.04673 1.12543 0.96051 1.04673 0.960479 1.04671 1.04673 1.12543 1.04671 1.12541 1.36528 1.40655 1.36529 1.40655 1.40655 1.44031 1.40655 1.44031 1.36529 1.40655 1.36529 1.40656 1.40655 1.44031 1.40656 1.44032 1.26024 1.31651 1.26025 1.31652 1.31651 1.36528 1.31652 1.36529 1.26025 1.31652 1.26025 1.31653 1.31652 1.36529 1.31653 1.36529 1.26024 1.31651 1.26024 1.31651 1.31651 1.36527 1.31651 1.36528 1.26024 1.31651 1.26024 1.31651 1.31651 1.36528 1.31651 1.36528 1.36527 1.40653 1.36528 1.40654 1.40653 1.4403 1.40654 1.4403 1.36528 1.40654 1.36528 1.40655 1.40654 1.4403 1.40655 1.44031 1.26025 1.31653 1.26026 1.31653 1.31653 1.36529 1.31653 1.3653 1.26026 1.31653 1.26027 1.31654 1.31653 1.3653 1.31654 1.36531 1.36529 1.40656 1.3653 1.40657 1.40656 1.44032 1.40657 1.44033 1.3653 1.40657 1.36531 1.40658 1.40657 1.44033 1.40658 1.44034 1.36531 1.40658 1.36532 1.40659 1.40658 1.44034 1.40659 1.44035 1.36532 1.40659 1.36537 1.40664 1.40659 1.44035 1.40664 1.44041 1.26027 1.31654 1.26027 1.31655 1.31654 1.36531 1.31655 1.36532 1.26027 1.31655 1.26032 1.3166 1.31655 1.36532 1.3166 1.36537 0.765242 0.765252 0.86651 0.86652 0.765252 0.765263 0.86652 0.866532 0.86651 0.86652 0.960271 0.960281 0.86652 0.866532 0.960281 0.960292 0.765224 0.765232 0.866493 0.866501 0.765232 0.765242 0.866501 0.86651 0.866493 0.866501 0.960255 0.960263 0.866501 0.86651 0.960263 0.960271 0.540168 0.540175 0.656449 0.656457 0.540175 0.540183 0.656457 0.656466 0.656449 0.656457 0.765224 0.765232 0.656457 0.656466 0.765232 0.765242 0.540183 0.540191 0.656466 0.656475 0.540191 0.540201 0.656475 0.656486 0.656466 0.656475 0.765242 0.765252 0.656475 0.656486 0.765252 0.765263 0.