# vtk DataFile Version 3.0
#This file was generated by the deal.II library on 2020/11/19 at 14:44:23
ASCII
DATASET UNSTRUCTURED_GRID

POINTS 8000 double
0.01 0.03 0
0.01 0.02 0
0.02 0.03 0
0.02 0.02 0
0.01 0.04 0
0.01 0.03 0
0.02 0.04 0
0.02 0.03 0
0 0.04 0
0 0.03 0
0.01 0.04 0
0.01 0.03 0
0 0.03 0
0 0.02 0
0.01 0.03 0
0.01 0.02 0
0.87 0.07 0
0.88 0.07 0
0.87 0.08 0
0.88 0.08 0
0.86 0.07 0
0.87 0.07 0
0.86 0.08 0
0.87 0.08 0
0.86 0.06 0
0.87 0.06 0
0.86 0.07 0
0.87 0.07 0
0.87 0.06 0
0.88 0.06 0
0.87 0.07 0
0.88 0.07 0
0.07 0.07 0
0.08 0.07 0
0.07 0.08 0
0.08 0.08 0
0.06 0.07 0
0.07 0.07 0
0.06 0.08 0
0.07 0.08 0
0.06 0.06 0
0.07 0.06 0
0.06 0.07 0
0.07 0.07 0
0.07 0.06 0
0.08 0.06 0
0.07 0.07 0
0.08 0.07 0
0.03 0.05 0
0.02 0.05 0
0.03 0.04 0
0.02 0.04 0
0.04 0.05 0
0.03 0.05 0
0.04 0.04 0
0.03 0.04 0
0.04 0.06 0
0.03 0.06 0
0.04 0.05 0
0.03 0.05 0
0.03 0.06 0
0.02 0.06 0
0.03 0.05 0
0.02 0.05 0
0.09 0.09 0
0.1 0.09 0
0.09 0.1 0
0.1 0.1 0
0.08 0.09 0
0.09 0.09 0
0.08 0.1 0
0.09 0.1 0
0.08 0.08 0
0.09 0.08 0
0.08 0.09 0
0.09 0.09 0
0.09 0.08 0
0.1 0.08 0
0.09 0.09 0
0.1 0.09 0
0.05 0.15 0
0.05 0.14 0
0.06 0.15 0
0.06 0.14 0
0.05 0.16 0
0.05 0.15 0
0.06 0.16 0
0.06 0.15 0
0.04 0.16 0
0.04 0.15 0
0.05 0.16 0
0.05 0.15 0
0.04 0.15 0
0.04 0.14 0
0.05 0.15 0
0.05 0.14 0
0.11 0.08 0
0.11 0.09 0
0.1 0.08 0
0.1 0.09 0
0.12 0.08 0
0.12 0.09 0
0.11 0.08 0
0.11 0.09 0
0.12 0.09 0
0.12 0.1 0
0.11 0.09 0
0.11 0.1 0
0.11 0.09 0
0.11 0.1 0
0.1 0.09 0
0.1 0.1 0
0.13 0.09 0
0.14 0.09 0
0.13 0.1 0
0.14 0.1 0
0.12 0.09 0
0.13 0.09 0
0.12 0.1 0
0.13 0.1 0
0.12 0.08 0
0.13 0.08 0
0.12 0.09 0
0.13 0.09 0
0.13 0.08 0
0.14 0.08 0
0.13 0.09 0
0.14 0.09 0
0.09 0.16 0
0.09 0.15 0
0.1 0.16 0
0.1 0.15 0
0.08 0.16 0
0.08 0.15 0
0.09 0.16 0
0.09 0.15 0
0.08 0.15 0
0.08 0.14 0
0.09 0.15 0
0.09 0.14 0
0.09 0.15 0
0.09 0.14 0
0.1 0.15 0
0.1 0.14 0
0.59 0.11 0
0.58 0.11 0
0.59 0.1 0
0.58 0.1 0
0.6 0.11 0
0.59 0.11 0
0.6 0.1 0
0.59 0.1 0
0.6 0.12 0
0.59 0.12 0
0.6 0.11 0
0.59 0.11 0
0.59 0.12 0
0.58 0.12 0
0.59 0.11 0
0.58 0.11 0
0.57 0.12 0
0.57 0.11 0
0.58 0.12 0
0.58 0.11 0
0.56 0.12 0
0.56 0.11 0
0.57 0.12 0
0.57 0.11 0
0.56 0.11 0
0.56 0.1 0
0.57 0.11 0
0.57 0.1 0
0.57 0.11 0
0.57 0.1 0
0.58 0.11 0
0.58 0.1 0
0.39 0.11 0
0.38 0.11 0
0.39 0.1 0
0.38 0.1 0
0.4 0.11 0
0.39 0.11 0
0.4 0.1 0
0.39 0.1 0
0.4 0.12 0
0.39 0.12 0
0.4 0.11 0
0.39 0.11 0
0.39 0.12 0
0.38 0.12 0
0.39 0.11 0
0.38 0.11 0
0.75 0.09 0
0.76 0.09 0
0.75 0.1 0
0.76 0.1 0
0.74 0.09 0
0.75 0.09 0
0.74 0.1 0
0.75 0.1 0
0.74 0.08 0
0.75 0.08 0
0.74 0.09 0
0.75 0.09 0
0.75 0.08 0
0.76 0.08 0
0.75 0.09 0
0.76 0.09 0
0.55 0.12 0
0.55 0.11 0
0.56 0.12 0
0.56 0.11 0
0.54 0.12 0
0.54 0.11 0
0.55 0.12 0
0.55 0.11 0
0.54 0.11 0
0.54 0.1 0
0.55 0.11 0
0.55 0.1 0
0.55 0.11 0
0.55 0.1 0
0.56 0.11 0
0.56 0.1 0
0.37 0.11 0
0.36 0.11 0
0.37 0.1 0
0.36 0.1 0
0.38 0.11 0
0.37 0.11 0
0.38 0.1 0
0.37 0.1 0
0.38 0.12 0
0.37 0.12 0
0.38 0.11 0
0.37 0.11 0
0.37 0.12 0
0.36 0.12 0
0.37 0.11 0
0.36 0.11 0
0.33 0.12 0
0.33 0.11 0
0.34 0.12 0
0.34 0.11 0
0.32 0.12 0
0.32 0.11 0
0.33 0.12 0
0.33 0.11 0
0.32 0.11 0
0.32 0.1 0
0.33 0.11 0
0.33 0.1 0
0.33 0.11 0
0.33 0.1 0
0.34 0.11 0
0.34 0.1 0
0.19 0.09 0
0.2 0.09 0
0.19 0.1 0
0.2 0.1 0
0.18 0.09 0
0.19 0.09 0
0.18 0.1 0
0.19 0.1 0
0.18 0.08 0
0.19 0.08 0
0.18 0.09 0
0.19 0.09 0
0.19 0.08 0
0.2 0.08 0
0.19 0.09 0
0.2 0.09 0
0.21 0.09 0
0.22 0.09 0
0.21 0.1 0
0.22 0.1 0
0.2 0.09 0
0.21 0.09 0
0.2 0.1 0
0.21 0.1 0
0.2 0.08 0
0.21 0.08 0
0.2 0.09 0
0.21 0.09 0
0.21 0.08 0
0.22 0.08 0
0.21 0.09 0
0.22 0.09 0
0.35 0.13 0
0.34 0.13 0
0.35 0.12 0
0.34 0.12 0
0.36 0.13 0
0.35 0.13 0
0.36 0.12 0
0.35 0.12 0
0.36 0.14 0
0.35 0.14 0
0.36 0.13 0
0.35 0.13 0
0.35 0.14 0
0.34 0.14 0
0.35 0.13 0
0.34 0.13 0
0.04 0.19 0
0.03 0.19 0
0.04 0.18 0
0.03 0.18 0
0.04 0.2 0
0.03 0.2 0
0.04 0.19 0
0.03 0.19 0
0.03 0.2 0
0.02 0.2 0
0.03 0.19 0
0.02 0.19 0
0.03 0.19 0
0.02 0.19 0
0.03 0.18 0
0.02 0.18 0
0.15 0.08 0
0.15 0.09 0
0.14 0.08 0
0.14 0.09 0
0.16 0.08 0
0.16 0.09 0
0.15 0.08 0
0.15 0.09 0
0.16 0.09 0
0.16 0.1 0
0.15 0.09 0
0.15 0.1 0
0.15 0.09 0
0.15 0.1 0
0.14 0.09 0
0.14 0.1 0
0.91 0.08 0
0.92 0.08 0
0.91 0.09 0
0.92 0.09 0
0.91 0.09 0
0.92 0.09 0
0.91 0.1 0
0.92 0.1 0
0.9 0.09 0
0.91 0.09 0
0.9 0.1 0
0.91 0.1 0
0.9 0.08 0
0.91 0.08 0
0.9 0.09 0
0.91 0.09 0
0.23 0.11 0
0.22 0.11 0
0.23 0.1 0
0.22 0.1 0
0.24 0.11 0
0.23 0.11 0
0.24 0.1 0
0.23 0.1 0
0.24 0.12 0
0.23 0.12 0
0.24 0.11 0
0.23 0.11 0
0.23 0.12 0
0.22 0.12 0
0.23 0.11 0
0.22 0.11 0
0.24 0.09 0
0.24 0.1 0
0.23 0.09 0
0.23 0.1 0
0.23 0.09 0
0.23 0.1 0
0.22 0.09 0
0.22 0.1 0
0.23 0.08 0
0.23 0.09 0
0.22 0.08 0
0.22 0.09 0
0.24 0.08 0
0.24 0.09 0
0.23 0.08 0
0.23 0.09 0
0.25 0.12 0
0.25 0.11 0
0.26 0.12 0
0.26 0.11 0
0.24 0.12 0
0.24 0.11 0
0.25 0.12 0
0.25 0.11 0
0.24 0.11 0
0.24 0.1 0
0.25 0.11 0
0.25 0.1 0
0.25 0.11 0
0.25 0.1 0
0.26 0.11 0
0.26 0.1 0
0.17 0.08 0
0.17 0.09 0
0.16 0.08 0
0.16 0.09 0
0.18 0.08 0
0.18 0.09 0
0.17 0.08 0
0.17 0.09 0
0.18 0.09 0
0.18 0.1 0
0.17 0.09 0
0.17 0.1 0
0.17 0.09 0
0.17 0.1 0
0.16 0.09 0
0.16 0.1 0
0.61 0.11 0
0.6 0.11 0
0.61 0.1 0
0.6 0.1 0
0.62 0.11 0
0.61 0.11 0
0.62 0.1 0
0.61 0.1 0
0.62 0.12 0
0.61 0.12 0
0.62 0.11 0
0.61 0.11 0
0.61 0.12 0
0.6 0.12 0
0.61 0.11 0
0.6 0.11 0
0.35 0.15 0
0.34 0.15 0
0.35 0.14 0
0.34 0.14 0
0.36 0.15 0
0.35 0.15 0
0.36 0.14 0
0.35 0.14 0
0.36 0.16 0
0.35 0.16 0
0.36 0.15 0
0.35 0.15 0
0.35 0.16 0
0.34 0.16 0
0.35 0.15 0
0.34 0.15 0
0.53 0.12 0
0.53 0.11 0
0.54 0.12 0
0.54 0.11 0
0.52 0.12 0
0.52 0.11 0
0.53 0.12 0
0.53 0.11 0
0.52 0.11 0
0.52 0.1 0
0.53 0.11 0
0.53 0.1 0
0.53 0.11 0
0.53 0.1 0
0.54 0.11 0
0.54 0.1 0
0.43 0.11 0
0.43 0.1 0
0.44 0.11 0
0.44 0.1 0
0.43 0.12 0
0.43 0.11 0
0.44 0.12 0
0.44 0.11 0
0.42 0.12 0
0.42 0.11 0
0.43 0.12 0
0.43 0.11 0
0.42 0.11 0
0.42 0.1 0
0.43 0.11 0
0.43 0.1 0
0.41 0.08 0
0.41 0.09 0
0.4 0.08 0
0.4 0.09 0
0.42 0.08 0
0.42 0.09 0
0.41 0.08 0
0.41 0.09 0
0.42 0.09 0
0.42 0.1 0
0.41 0.09 0
0.41 0.1 0
0.41 0.09 0
0.41 0.1 0
0.4 0.09 0
0.4 0.1 0
0.31 0.11 0
0.3 0.11 0
0.31 0.1 0
0.3 0.1 0
0.32 0.11 0
0.31 0.11 0
0.32 0.1 0
0.31 0.1 0
0.32 0.12 0
0.31 0.12 0
0.32 0.11 0
0.31 0.11 0
0.31 0.12 0
0.3 0.12 0
0.31 0.11 0
0.3 0.11 0
0.43 0.09 0
0.44 0.09 0
0.43 0.1 0
0.44 0.1 0
0.42 0.09 0
0.43 0.09 0
0.42 0.1 0
0.43 0.1 0
0.42 0.08 0
0.43 0.08 0
0.42 0.09 0
0.43 0.09 0
0.43 0.08 0
0.44 0.08 0
0.43 0.09 0
0.44 0.09 0
0.81 0.09 0
0.82 0.09 0
0.81 0.1 0
0.82 0.1 0
0.8 0.09 0
0.81 0.09 0
0.8 0.1 0
0.81 0.1 0
0.8 0.08 0
0.81 0.08 0
0.8 0.09 0
0.81 0.09 0
0.81 0.08 0
0.82 0.08 0
0.81 0.09 0
0.82 0.09 0
0.77 0.09 0
0.78 0.09 0
0.77 0.1 0
0.78 0.1 0
0.76 0.09 0
0.77 0.09 0
0.76 0.1 0
0.77 0.1 0
0.76 0.08 0
0.77 0.08 0
0.76 0.09 0
0.77 0.09 0
0.77 0.08 0
0.78 0.08 0
0.77 0.09 0
0.78 0.09 0
0.86 0.08 0
0.87 0.08 0
0.86 0.09 0
0.87 0.09 0
0.87 0.08 0
0.88 0.08 0
0.87 0.09 0
0.88 0.09 0
0.87 0.09 0
0.88 0.09 0
0.87 0.1 0
0.88 0.1 0
0.86 0.09 0
0.87 0.09 0
0.86 0.1 0
0.87 0.1 0
0.89 0.08 0
0.9 0.08 0
0.89 0.09 0
0.9 0.09 0
0.89 0.09 0
0.9 0.09 0
0.89 0.1 0
0.9 0.1 0
0.88 0.09 0
0.89 0.09 0
0.88 0.1 0
0.89 0.1 0
0.88 0.08 0
0.89 0.08 0
0.88 0.09 0
0.89 0.09 0
0.29 0.11 0
0.28 0.11 0
0.29 0.1 0
0.28 0.1 0
0.3 0.11 0
0.29 0.11 0
0.3 0.1 0
0.29 0.1 0
0.3 0.12 0
0.29 0.12 0
0.3 0.11 0
0.29 0.11 0
0.29 0.12 0
0.28 0.12 0
0.29 0.11 0
0.28 0.11 0
0.83 0.08 0
0.83 0.09 0
0.82 0.08 0
0.82 0.09 0
0.84 0.08 0
0.84 0.09 0
0.83 0.08 0
0.83 0.09 0
0.84 0.09 0
0.84 0.1 0
0.83 0.09 0
0.83 0.1 0
0.83 0.09 0
0.83 0.1 0
0.82 0.09 0
0.82 0.1 0
0.25 0.13 0
0.25 0.12 0
0.26 0.13 0
0.26 0.12 0
0.25 0.14 0
0.25 0.13 0
0.26 0.14 0
0.26 0.13 0
0.24 0.14 0
0.24 0.13 0
0.25 0.14 0
0.25 0.13 0
0.24 0.13 0
0.24 0.12 0
0.25 0.13 0
0.25 0.12 0
0.47 0.08 0
0.47 0.09 0
0.46 0.08 0
0.46 0.09 0
0.48 0.08 0
0.48 0.09 0
0.47 0.08 0
0.47 0.09 0
0.48 0.09 0
0.48 0.1 0
0.47 0.09 0
0.47 0.1 0
0.47 0.09 0
0.47 0.1 0
0.46 0.09 0
0.46 0.1 0
0.79 0.09 0
0.8 0.09 0
0.79 0.1 0
0.8 0.1 0
0.78 0.09 0
0.79 0.09 0
0.78 0.1 0
0.79 0.1 0
0.78 0.08 0
0.79 0.08 0
0.78 0.09 0
0.79 0.09 0
0.79 0.08 0
0.8 0.08 0
0.79 0.09 0
0.8 0.09 0
0.63 0.11 0
0.62 0.11 0
0.63 0.1 0
0.62 0.1 0
0.64 0.11 0
0.63 0.11 0
0.64 0.1 0
0.63 0.1 0
0.64 0.12 0
0.63 0.12 0
0.64 0.11 0
0.63 0.11 0
0.63 0.12 0
0.62 0.12 0
0.63 0.11 0
0.62 0.11 0
0.27 0.11 0
0.26 0.11 0
0.27 0.1 0
0.26 0.1 0
0.28 0.11 0
0.27 0.11 0
0.28 0.1 0
0.27 0.1 0
0.28 0.12 0
0.27 0.12 0
0.28 0.11 0
0.27 0.11 0
0.27 0.12 0
0.26 0.12 0
0.27 0.11 0
0.26 0.11 0
0.73 0.12 0
0.73 0.11 0
0.74 0.12 0
0.74 0.11 0
0.72 0.12 0
0.72 0.11 0
0.73 0.12 0
0.73 0.11 0
0.72 0.11 0
0.72 0.1 0
0.73 0.11 0
0.73 0.1 0
0.73 0.11 0
0.73 0.1 0
0.74 0.11 0
0.74 0.1 0
0.88 0.04 0
0.88 0.03 0
0.89 0.04 0
0.89 0.03 0
0.88 0.03 0
0.88 0.02 0
0.89 0.03 0
0.89 0.02 0
0.89 0.03 0
0.89 0.02 0
0.9 0.03 0
0.9 0.02 0
0.89 0.04 0
0.89 0.03 0
0.9 0.04 0
0.9 0.03 0
0.45 0.08 0
0.45 0.09 0
0.44 0.08 0
0.44 0.09 0
0.46 0.08 0
0.46 0.09 0
0.45 0.08 0
0.45 0.09 0
0.46 0.09 0
0.46 0.1 0
0.45 0.09 0
0.45 0.1 0
0.45 0.09 0
0.45 0.1 0
0.44 0.09 0
0.44 0.1 0
0.85 0.09 0
0.86 0.09 0
0.85 0.1 0
0.86 0.1 0
0.84 0.09 0
0.85 0.09 0
0.84 0.1 0
0.85 0.1 0
0.84 0.08 0
0.85 0.08 0
0.84 0.09 0
0.85 0.09 0
0.85 0.08 0
0.86 0.08 0
0.85 0.09 0
0.86 0.09 0
0.51 0.08 0
0.52 0.08 0
0.51 0.09 0
0.52 0.09 0
0.51 0.09 0
0.52 0.09 0
0.51 0.1 0
0.52 0.1 0
0.5 0.09 0
0.51 0.09 0
0.5 0.1 0
0.51 0.1 0
0.5 0.08 0
0.51 0.08 0
0.5 0.09 0
0.51 0.09 0
0.49 0.12 0
0.49 0.11 0
0.5 0.12 0
0.5 0.11 0
0.48 0.12 0
0.48 0.11 0
0.49 0.12 0
0.49 0.11 0
0.48 0.11 0
0.48 0.1 0
0.49 0.11 0
0.49 0.1 0
0.49 0.11 0
0.49 0.1 0
0.5 0.11 0
0.5 0.1 0
0.77 0.06 0
0.77 0.05 0
0.78 0.06 0
0.78 0.05 0
0.76 0.06 0
0.76 0.05 0
0.77 0.06 0
0.77 0.05 0
0.76 0.05 0
0.76 0.04 0
0.77 0.05 0
0.77 0.04 0
0.77 0.05 0
0.77 0.04 0
0.78 0.05 0
0.78 0.04 0
0.69 0.08 0
0.69 0.09 0
0.68 0.08 0
0.68 0.09 0
0.7 0.08 0
0.7 0.09 0
0.69 0.08 0
0.69 0.09 0
0.7 0.09 0
0.7 0.1 0
0.69 0.09 0
0.69 0.1 0
0.69 0.09 0
0.69 0.1 0
0.68 0.09 0
0.68 0.1 0
0.48 0.08 0
0.49 0.08 0
0.48 0.09 0
0.49 0.09 0
0.49 0.08 0
0.5 0.08 0
0.49 0.09 0
0.5 0.09 0
0.49 0.09 0
[...]
POINT_DATA 8000
SCALARS solution_0 double 1
LOOKUP_TABLE default
0.999959 0.999943 0.999829 0.999763 0.999979 0.999959 0.999911 0.999829 1 1 0.999979 0.999959 1 1 0.999959 0.999943 1.36602 1.36602 1.44108 1.44108 1.36602 1.36602 1.44108 1.44108 1.26094 1.26094 1.36602 1.36602 1.26094 1.26094 1.36602 1.36602 1.00272 1.00393 1.0037 1.00532 1.00184 1.00272 1.00251 1.0037 1.00099 1.00148 1.00184 1.00272 1.00148 1.00215 1.00272 1.00393 1.00001 1 0.999797 0.999911 1.00001 1.00001 0.999628 0.999797 1.00039 1.00021 1.00001 1.00001 1.00021 1.00009 1.00001 1 1.00873 1.01214 1.00914 1.0127 1.00619 1.00873 1.00649 1.00914 1.00532 1.00751 1.00619 1.00873 1.00751 1.01049 1.00873 1.01214 1.00002 1.00064 1.00004 1.00099 0.999392 1.00002 0.99907 1.00004 0.999628 1.00001 0.999392 1.00002 1.00001 1.00039 1.00002 1.00064 1.0145 1.0167 1.01049 1.01214 1.01992 1.02279 1.0145 1.0167 1.02279 1.02376 1.0167 1.01745 1.0167 1.01745 1.01214 1.0127 1.03084 1.04136 1.03206 1.04287 1.02279 1.03084 1.02376 1.03206 1.01992 1.02717 1.02279 1.03084 1.02717 1.03683 1.03084 1.04136 0.997309 1.00025 0.996332 1.00047 0.998064 1.00013 0.997309 1.00025 1.00013 1.00215 1.00025 1.0031 1.00025 1.0031 1.00047 1.00443 1.48596 1.48593 1.50096 1.50093 1.48599 1.48596 1.50099 1.50096 1.44099 1.44097 1.48599 1.48596 1.44097 1.44095 1.48596 1.48593 1.44092 1.4859 1.44095 1.48593 1.44089 1.48585 1.44092 1.4859 1.48585 1.50083 1.4859 1.50088 1.4859 1.50088 1.48593 1.50093 1.47834 1.47653 1.49252 1.49051 1.4798 1.47834 1.49413 1.49252 1.43662 1.43559 1.4798 1.47834 1.43559 1.43431 1.47834 1.47653 1.4861 1.4861 1.50111 1.50111 1.4861 1.4861 1.50111 1.50111 1.44107 1.44107 1.4861 1.4861 1.44107 1.44107 1.4861 1.4861 1.44085 1.48579 1.44089 1.48585 1.4408 1.48573 1.44085 1.48579 1.48573 1.5007 1.48579 1.50077 1.48579 1.50077 1.48585 1.50083 1.47429 1.4715 1.48803 1.48495 1.47653 1.47429 1.49051 1.48803 1.43431 1.43272 1.47653 1.47429 1.43272 1.43074 1.47429 1.4715 1.42133 1.45841 1.42519 1.46375 1.4165 1.4518 1.42133 1.45841 1.4518 1.46327 1.45841 1.47052 1.45841 1.47052 1.46375 1.47639 1.14767 1.17996 1.14977 1.18192 1.11851 1.14767 1.1207 1.14977 1.11172 1.1411 1.11851 1.14767 1.1411 1.17373 1.14767 1.17996 1.21415 1.24877 1.21604 1.2508 1.17996 1.21415 1.18192 1.21604 1.17373 1.20802 1.17996 1.21415 1.20802 1.24207 1.21415 1.24877 1.36044 1.35905 1.42827 1.42519 1.36154 1.36044 1.43074 1.42827 1.26244 1.26277 1.36154 1.36044 1.26277 1.26315 1.36044 1.35905 0.998821 0.999359 0.999001 0.999457 0.998758 0.999325 0.998821 0.999359 0.999325 0.999706 0.999359 0.999721 0.999359 0.999721 0.999457 0.999763 1.04952 1.05493 1.03683 1.04136 1.06591 1.07208 1.04952 1.05493 1.07208 1.0741 1.05493 1.05671 1.05493 1.05671 1.04136 1.04287 1.44109 1.4411 1.48613 1.48614 1.48613 1.48614 1.50115 1.50116 1.48613 1.48613 1.50114 1.50115 1.44109 1.44109 1.48613 1.48613 1.28237 1.24877 1.28482 1.2508 1.31374 1.28237 1.31691 1.28482 1.30314 1.27418 1.31374 1.28237 1.27418 1.24207 1.28237 1.24877 1.31374 1.31691 1.28237 1.28482 1.28237 1.28482 1.24877 1.2508 1.27418 1.28237 1.24207 1.24877 1.30314 1.31374 1.27418 1.28237 1.32833 1.34207 1.34965 1.36694 1.30314 1.31374 1.32833 1.34207 1.31374 1.31691 1.34207 1.34621 1.34207 1.34621 1.36694 1.37222 1.08655 1.09322 1.06591 1.07208 1.11172 1.11851 1.08655 1.09322 1.11851 1.1207 1.09322 1.09538 1.09322 1.09538 1.07208 1.0741 1.48601 1.48599 1.50101 1.50099 1.48603 1.48601 1.50103 1.50101 1.44102 1.44101 1.48603 1.48601 1.44101 1.44099 1.48601 1.48599 1.13357 1.13539 1.26277 1.26315 1.13209 1.13357 1.26244 1.26277 0.969612 0.971741 1.13209 1.13357 0.971741 0.974398 1.13357 1.13539 1.44074 1.48564 1.4408 1.48573 1.44067 1.48554 1.44074 1.48564 1.48554 1.50049 1.48564 1.50061 1.48564 1.50061 1.48573 1.5007 1.4827 1.49735 1.48333 1.49804 1.43866 1.4827 1.4391 1.48333 1.43812 1.48193 1.43866 1.4827 1.48193 1.4965 1.4827 1.49735 1.43745 1.48098 1.43662 1.4798 1.43812 1.48193 1.43745 1.48098 1.48193 1.4965 1.48098 1.49544 1.48098 1.49544 1.4798 1.49413 1.44363 1.43357 1.45434 1.44339 1.4518 1.44363 1.46327 1.45434 1.4165 1.41046 1.4518 1.44363 1.41046 1.4029 1.44363 1.43357 1.4827 1.48333 1.49735 1.49804 1.48193 1.4827 1.4965 1.49735 1.43812 1.43866 1.48193 1.4827 1.43866 1.4391 1.4827 1.48333 1.48611 1.48611 1.50112 1.50112 1.48611 1.48611 1.50112 1.50112 1.44107 1.44108 1.48611 1.48611 1.44108 1.44108 1.48611 1.48611 1.48611 1.48611 1.50112 1.50112 1.4861 1.48611 1.50111 1.50112 1.44107 1.44107 1.4861 1.48611 1.44107 1.44107 1.48611 1.48611 1.44108 1.44108 1.48611 1.48611 1.44108 1.44108 1.48611 1.48612 1.48611 1.48612 1.50113 1.50113 1.48611 1.48611 1.50112 1.50113 1.44108 1.44109 1.48612 1.48613 1.48612 1.48613 1.50113 1.50114 1.48612 1.48612 1.50113 1.50113 1.44108 1.44108 1.48612 1.48612 1.42125 1.40628 1.43006 1.41397 1.43357 1.42125 1.44339 1.43006 1.4029 1.39348 1.43357 1.42125 1.39348 1.38178 1.42125 1.40628 1.44108 1.48611 1.44108 1.48611 1.44108 1.48611 1.44108 1.48611 1.48611 1.50112 1.48611 1.50112 1.48611 1.50112 1.48611 1.50112 1.30091 1.32833 1.316 1.34965 1.25271 1.30091 1.25886 1.316 1.24247 1.28155 1.25271 1.30091 1.28155 1.30314 1.30091 1.32833 1.43999 1.48459 1.43976 1.48425 1.44019 1.48486 1.43999 1.48459 1.48486 1.49974 1.48459 1.49944 1.48459 1.49944 1.48425 1.49907 1.48611 1.48611 1.50112 1.50112 1.48611 1.48611 1.50112 1.50112 1.44107 1.44107 1.48611 1.48611 1.44107 1.44107 1.48611 1.48611 1.48604 1.48603 1.50105 1.50103 1.48605 1.48604 1.50106 1.50105 1.44104 1.44103 1.48605 1.48604 1.44103 1.44102 1.48604 1.48603 1.38828 1.36694 1.39478 1.37222 1.40628 1.38828 1.41397 1.39478 1.38178 1.36733 1.40628 1.38828 1.36733 1.34965 1.38828 1.36694 1.44107 1.4861 1.44107 1.4861 1.44107 1.4861 1.44107 1.4861 1.4861 1.50111 1.4861 1.50111 1.4861 1.50111 1.4861 1.50111 0.960713 0.765566 0.960711 0.765563 0.765566 0.540398 0.765563 0.540395 0.765563 0.540395 0.765559 0.540392 0.960711 0.765563 0.960708 0.765559 1.43946 1.48384 1.4391 1.48333 1.43976 1.48425 1.43946 1.48384 1.48425 1.49907 1.48384 1.49861 1.48384 1.49861 1.48333 1.49804 1.48611 1.48611 1.50112 1.50112 1.48611 1.48611 1.50112 1.50112 1.44108 1.44108 1.48611 1.48611 1.44108 1.44108 1.48611 1.48611 1.44058 1.44067 1.48542 1.48554 1.48542 1.48554 1.50036 1.50049 1.48527 1.48542 1.50019 1.50036 1.44048 1.44058 1.48527 1.48542 1.44035 1.48509 1.44048 1.48527 1.44019 1.48486 1.44035 1.48509 1.48486 1.49974 1.48509 1.49999 1.48509 1.49999 1.48527 1.50019 1.26094 1.12584 1.26094 1.12584 1.26094 1.12584 1.26094 1.12584 1.12584 0.960721 1.12584 0.96072 1.12584 0.96072 1.12584 0.960719 1.44106 1.48609 1.44106 1.48608 1.44106 1.48609 1.44106 1.48609 1.48609 1.5011 1.48609 1.5011 1.48609 1.5011 1.48608 1.50109 1.44019 1.44035 1.48486 1.48509 1.44035 1.44048 1.48509 1.48527 1.48509 1.48527 1.49999 1.50019 1.48486 1.48509 1.49974 1.49999 1.12662 1.12679 1.26111 1.26116 0.961841 0.962091 1.12662 1.12679 0.962091 0.962399 1.12679 1.12701 1.12679 1.12701 1.26116 1.26121 0.99928 0.999628 0.998818 0.999392 0.998818 0.999392 0.998184 0.99907 0.998358 0.998818 0.997471 0.998184 0.999001 0.99928 0.998358 0.998818 0.765422 0.960626 0.765371 0.960608 0.540235 0.765422 0.540153 0.765371 0.54029 0.765465 0.540235 0.765422 0.765465 0.960646 0.765422 0.960626 0.960646 1.12582 0.960626 1.12582 1.12582 1.26097 1.12582 1.26099 1.12582 1.26099 1.12583 1.26102 0.960626 1.12582 0.960608 1.12583 1.44104 1.48606 1.44104 1.48605 1.44105 1.48607 1.44104 1.48606 1.48607 1.50108 1.48606 1.50107 1.48606 1.50107 1.48605 1.50106 1.00751 1.00873 1.01049 1.01214 1.00532 1.00619 1.00751 1.00873 1.00619 1.00649 1.00873 1.00914 1.00873 1.00914 1.01214 1.0127 0.768196 0.76879 0.963246 0.963824 0.542532 0.543008 0.768196 0.76879 0.543008 0.543597 0.76879 0.769525 0.76879 0.769525 0.963824 0.96454 0.993237 0.993588 0.990356 0.990867 0.993588 0.994599 0.990867 0.992332 0.990867 0.992332 0.987106 0.989227 0.990356 0.990867 0.986365 0.987106 0.776943 0.77971 0.971741 0.974398 0.774739 0.776943 0.969612 0.971741 0.547764 0.54953 0.774739 0.776943 0.54953 0.551755 0.776943 0.77971 1.43074 1.42827 1.4715 1.46804 1.42827 1.42519 1.46804 1.46375 1.46804 1.46375 1.48113 1.47639 1.4715 1.46804 1.48495 1.48113 1.16218 1.19622 1.17373 1.20802 1.14319 1.17587 1.16218 1.19622 1.17587 1.20444 1.19622 1.22864 1.19622 1.22864 1.20802 1.24207 1.48608 1.48608 1.50109 1.50109 1.48607 1.48608 1.50108 1.50109 1.44105 1.44105 1.48607 1.48608 1.44105 1.44106 1.48608 1.48608 0.99615 0.998064 0.994569 0.997309 0.994569 0.997309 0.992437 0.996332 0.992332 0.994569 0.989227 0.992437 0.994599 0.99615 0.992332 0.994569 1.44107 1.4861 1.44107 1.4861 1.44106 1.48609 1.44107 1.4861 1.48609 1.5011 1.4861 1.5011 1.4861 1.5011 1.4861 1.50111 0.960728 0.765583 0.960726 0.765581 0.765583 0.540413 0.765581 0.540411 0.765581 0.540411 0.765579 0.54041 0.960726 0.765581 0.960725 0.765579 1.14181 1.08504 1.1623 1.09 1.17587 1.14181 1.20444 1.1623 1.14319 1.11303 1.17587 1.14181 1.11303 1.06515 1.14181 1.08504 0.96069 1.12583 0.960679 1.12582 0.960698 1.12583 0.96069 1.12583 1.12583 1.26095 1.12583 1.26095 1.12583 1.26095 1.12582 1.26095 1.12582 0.960664 1.12582 0.960646 1.26096 1.12582 1.26097 1.12582 1.26095 1.12582 1.26096 1.12582 1.12582 0.960679 1.12582 0.960664 1.00099 1.00116 1.00054 1.00063 1.00116 1.00122 1.00063 1.00066 1.00063 1.00066 1.00028 1.00029 1.00054 1.00063 1.00024 1.00028 1.17587 1.17302 1.24247 1.22673 1.06795 1.08242 1.17587 1.17302 1.08242 1.09 1.17302 1.1623 1.17302 1.1623 1.22673 1.20444 0.766747 0.767006 0.961841 0.962091 0.541364 0.541574 0.766747 0.767006 0.541574 0.541831 0.767006 0.767324 0.767006 0.767324 0.962091 0.962399 1.44118 1.48624 1.44122 1.48628 1.48624 1.50125 1.48628 1.5013 1.48628 1.5013 1.48634 1.50137 1.44122 1.48628 1.44128 1.48634 1.44107 1.44107 1.4861 1.4861 1.4861 1.4861 1.50111 1.50111 1.4861 1.4861 1.50111 1.50111 1.44107 1.44107 1.4861 1.4861 0.285162 0.285135 0.540327 0.54029 0.285179 0.285162 0.540351 0.540327 0 0 0.285179 0.285162 0 0 0.285162 0.285135 0.989135 1.08504 0.968073 1.09 0.826953 0.989135 0.763284 0.968073 0.858917 0.988503 0.826953 0.989135 0.988503 1.06515 0.989135 1.08504 1.42827 1.46804 1.42519 1.46375 1.43074 1.4715 1.42827 1.46804 1.4715 1.48495 1.46804 1.48113 1.46804 1.48113 1.46375 1.47639 1.352 1.34813 1.41046 1.4029 1.35497 1.352 1.4165 1.41046 1.26399 1.26438 1.35497 1.352 1.26438 1.26463 1.352 1.34813 0.284878 0.540039 0.284804 0.540077 0 0.284878 0 0.284804 0 0.285015 0 0.284878 0.285015 0.540153 0.284878 0.540039 1.48609 1.4861 1.5011 1.5011 1.44106 1.44107 1.48609 1.4861 1.44107 1.44107 1.4861 1.4861 1.4861 1.4861 1.5011 1.50111 0.765519 0.540351 0.765496 0.540327 0.765496 0.540327 0.765465 0.54029 0.960664 0.765496 0.960646 0.765465 0.960679 0.765519 0.960664 0.765496 0 0 0.285257 0.285267 0.285257 0.285267 0.540481 0.540497 0.28525 0.285257 0.540467 0.540481 0 0 0.28525 0.285257 0 0.285238 0 0.285243 0.285238 0.540447 0.285243 0.540456 0.285243 0.540456 0.28525 0.540467 0 0.285243 0 0.28525 0 0.642962 0 0.521151 0.642962 0.858917 0.521151 0.826953 0.521151 0.826953 0.44035 0.763284 0 0.521151 0 0.44035 1.00903 1.00632 1.00162 1.00087 1.00632 1.00443 1.00087 1.00047 1.00087 1.00047 0.995098 0.996332 1.00162 1.00087 0.993605 0.995098 0.285278 0.540517 0.285267 0.540497 0 0.285278 0 0.285267 0 0.285292 0 0.285278 0.285292 0.540541 0.285278 0.540517 0.960721 0.765575 0.96072 0.765574 0.765575 0.540406 0.765574 0.540406 0.765574 0.540406 0.765574 0.540405 0.96072 0.765574 0.960719 0.765574 1.4165 1.42133 1.4518 1.45841 1.42133 1.42519 1.45841 1.46375 1.45841 1.46375 1.47052 1.47639 1.4518 1.45841 1.46327 1.47052 1.12607 1.26099 1.12603 1.26098 1.12603 1.26098 1.126 1.26097 0.960999 1.12603 0.960949 1.126 0.96106 1.12607 0.960999 1.12603 1.00116 1.00063 1.00122 1.00066 1.00099 1.00054 1.00116 1.00063 1.00054 1.00024 1.00063 1.00028 1.00063 1.00028 1.00066 1.00029 0.991935 0.980787 0.990368 0.974437 0.993605 0.985773 0.991935 0.980787 0.985773 0.979093 0.980787 0.971004 0.980787 0.971004 0.974437 0.959866 0.996258 0.99732 0.994599 0.99615 0.997471 0.998184 0.996258 0.99732 0.998184 0.99907 0.99732 0.998638 0.99732 0.998638 0.99615 0.998064 1.06795 0.903003 1.05169 0.875378 0.903003 0.668535 0.875378 0.638301 0.875378 0.638301 0.852785 0.615753 1.05169 0.875378 1.03619 0.852785 0.765546 0.960698 0.765535 0.96069 0.765535 0.96069 0.765519 0.960679 0.540368 0.765535 0.540351 0.765519 0.540379 0.765546 0.540368 0.765535 1.36612 1.44122 1.36617 1.44128 1.26099 1.36612 1.26102 1.36617 1.26097 1.36609 1.26099 1.36612 1.36609 1.44118 1.36612 1.44122 1.26102 1.36617 1.26106 1.36622 1.36617 1.44128 1.36622 1.44134 1.36622 1.44134 1.36659 1.44173 1.26106 1.36622 1.26139 1.36659 0.765665 0.765685 0.960805 0.960824 0.765649 0.765665 0.96079 0.960805 0.540467 0.540481 0.765649 0.765665 0.540481 0.540497 0.765665 0.765685 1.00002 1.00009 1.00004 1.00017 1.00004 1.00017 1.00006 1.00024 1 1.00004 1 1.00006 1 1.00002 1 1.00004 0.834706 0.852786 1.02249 1.03619 0.820379 0.834706 1.01087 1.02249 0.585953 0.598805 0.820379 0.834706 0.598805 0.615754 0.834706 0.852786 0.96069 0.765535 0.960679 0.765519 0.960698 0.765546 0.96069 0.765535 0.765546 0.540379 0.765535 0.540368 0.765535 0.540368 0.765519 0.540351 1.26095 1.26095 1.12586 1.12587 1.26095 1.26095 1.12587 1.12587 1.12587 1.12587 0.960758 0.960767 1.12586 1.12587 0.960751 0.960758 0 0 0.285015 0.284878 0 0 0.284878 0.284804 0.284878 0.284804 0.540039 0.540077 0.285015 0.284878 0.540153 0.540039 0.997786 0.991118 0.952517 0.958661 0.952517 0.958661 0.898983 0.924291 0.955269 0.952517 0.872308 0.898983 1.01281 0.997786 0.955269 0.952517 0.995567 0.996258 0.993588 0.994599 0.995328 0.995567 0.993237 0.993588 0.99685 0.99701 0.995328 0.995567 0.99701 0.997471 0.995567 0.996258 1.02279 1.02376 1.03084 1.03206 1.03084 1.03206 1.04136 1.04287 1.02717 1.03084 1.03683 1.04136 1.01992 1.02279 1.02717 1.03084 1.26094 1.36601 1.26094 1.36601 1.36601 1.44105 1.36601 1.44105 1.36601 1.44105 1.36601 1.44106 1.26094 1.36601 1.26094 1.36601 0.541053 0.766363 0.540938 0.766222 0.766363 0.961471 0.766222 0.961336 0.766222 0.961336 0.766106 0.961225 0.540938 0.766222 0.540843 0.766106 1.00039 1.00001 1.00064 1.00002 1.00001 0.999628 1.00002 0.999392 1.00002 0.999392 1.00004 0.99907 1.00064 1.00002 1.00099 1.00004 0 0.363005 0 0.342815 0.363005 0.668536 0.342815 0.638302 0.342815 0.638302 0.328637 0.615754 0 0.342815 0 0.328637 0.766363 0.766536 0.961471 0.961637 0.541053 0.541193 0.766363 0.766536 0.541193 0.541364 0.766536 0.766747 0.766536 0.766747 0.961637 0.961841 0.709261 0.763284 0.935133 0.968073 0.935133 0.968073 1.08242 1.09 0.903004 0.935133 1.06795 1.08242 0.668536 0.709261 0.903004 0.935133 1.08242 1.09 0.935133 0.968072 0.935133 0.968072 0.70926 0.763284 0.903003 0.935133 0.668535 0.70926 1.06795 1.08242 0.903003 0.935133 1.26101 1.261 1.36575 1.3658 1.261 1.26099 1.3658 1.36584 1.3658 1.36584 1.44058 1.44067 1.36575 1.3658 1.44048 1.44058 0.960608 1.12583 0.960587 1.12584 1.12583 1.26102 1.12584 1.26106 1.12584 1.26106 1.12613 1.26139 0.960587 1.12584 0.960811 1.12613 1.00064 1.00099 1.00119 1.00184 1.00119 1.00184 1.00163 1.00251 1.00073 1.00119 1.00099 1.00163 1.00039 1.00064 1.00073 1.00119 1.17366 1.25271 1.16891 1.25886 1.05169 1.17366 1.03619 1.16891 1.06795 1.17587 1.05169 1.17366 1.17587 1.24247 1.17366 1.25271 0.966782 0.974437 0.944642 0.959866 0.958661 0.966782 0.924291 0.944642 0.991118 0.989606 0.958661 0.966782 0.989606 0.990368 0.966782 0.974437 0.96074 0.960745 0.765596 0.765601 0.960745 0.960751 0.765601 0.765607 0.765601 0.765607 0.540428 0.540433 0.765596 0.765601 0.540424 0.540428 1.26108 1.36554 1.26111 1.36544 1.26105 1.36563 1.26108 1.36554 1.36563 1.44019 1.36554 1.43999 1.36554 1.43999 1.36544 1.43976 1.12582 1.26096 1.12582 1.26097 0.960664 1.12582 0.960646 1.12582 0.960679 1.12582 0.960664 1.12582 1.12582 1.26095 1.12582 1.26096 0 0 0.288521 0.289296 0.288521 0.289296 0.546356 0.547764 0.287901 0.288521 0.545229 0.546356 0 0 0.287901 0.288521 0.960767 0.960777 0.765624 0.765635 0.960777 0.96079 0.765635 0.765649 0.765635 0.765649 0.540456 0.540467 0.765624 0.765635 0.540447 0.540456 0.765817 0.960949 0.765774 0.960908 0.765774 0.960908 0.765738 0.960874 0.540571 0.765774 0.540541 0.765738 0.540606 0.765817 0.540571 0.765774 1 0.999979 1 0.999911 1.00002 1 1.00009 1 1 1 1.00002 1 1 1 1 0.999979 0.998061 0.998358 0.99701 0.997471 0.997958 0.998061 0.99685 0.99701 0.998758 0.998821 0.997958 0.998061 0.998821 0.999001 0.998061 0.998358 1.36602 1.36602 1.44107 1.44108 1.26094 1.26094 1.36602 1.36602 1.26094 1.26094 1.36602 1.36602 1.36602 1.36602 1.44108 1.44108 0.638302 0.875379 0.615754 0.852786 0.668536 0.903004 0.638302 0.875379 0.903004 1.06795 0.875379 1.05169 0.875379 1.05169 0.852786 1.03619 1.1259 1.12591 0.960805 0.960824 1.12589 1.1259 0.96079 0.960805 1.26095 1.26095 1.12589 1.1259 1.26095 1.26096 1.1259 1.12591 1.26094 1.12585 1.26094 1.12585 1.26094 1.12586 1.26094 1.12585 1.12586 0.96074 1.12585 0.960736 1.12585 0.960736 1.12585 0.960733 1.26094 1.12584 1.26094 1.12584 1.26094 1.12584 1.26094 1.12584 1.12584 0.960715 1.12584 0.960714 1.12584 0.960714 1.12584 0.960713 1.04035 1.04952 1.02927 1.03683 1.02726 1.04035 1.01876 1.02927 1.03962 1.05526 1.02726 1.04035 1.05526 1.06591 1.04035 1.04952 0.986985 0.993365 1.14367 1.14762 1.14367 1.14762 1.26438 1.26463 1.14036 1.14367 1.26399 1.26438 0.981843 0.986985 1.14036 1.14367 0.540153 0.765371 0.540039 0.765307 0.765371 0.960608 0.765307 0.960587 0.765307 0.960587 0.765447 0.960811 0.540039 0.765307 0.540077 0.765447 1.44107 1.48611 1.44107 1.48611 1.44107 1.4861 1.44107 1.48611 1.4861 1.50111 1.48611 1.50112 1.48611 1.50112 1.48611 1.50112 1.26094 1.36601 1.26094 1.36602 1.36601 1.44106 1.36602 1.44107 1.36602 1.44107 1.36602 1.44107 1.26094 1.36602 1.26094 1.36602 0.766011 0.961134 0.765934 0.96106 0.540766 0.766011 0.540702 0.765934 0.540843 0.766106 0.540766 0.766011 0.766106 0.961225 0.766011 0.961134 0 0.28641 0 0.286195 0.28641 0.542532 0.286195 0.542145 0.286195 0.542145 0.286019 0.541831 0 0.286195 0 0.286019 1.12852 1.12915 1.26158 1.26174 0.96454 0.965428 1.12852 1.12915 0.965428 0.966531 1.12915 1.12993 1.12915 1.12993 1.26174 1.26193 0 0 0.285214 0.285214 0.285214 0.285214 0.540406 0.540405 0.285215 0.285214 0.540406 0.540406 0 0 0.285215 0.285214 1.05305 1.03206 1.01281 0.997786 1.08078 1.05716 1.05305 1.03206 1.05716 1.03962 1.03206 1.01838 1.03206 1.01838 0.997786 0.991118 1.36444 1.36409 1.43745 1.43662 1.36473 1.36444 1.43812 1.43745 1.26136 1.26146 1.36473 1.36444 1.26146 1.26158 1.36444 1.36409 0 0 0.28519 0.285179 0.28519 0.285179 0.540368 0.540351 0.285197 0.28519 0.540379 0.540368 0 0 0.285197 0.28519 1.26094 1.26094 1.36602 1.36602 1.26094 1.26094 1.36602 1.36602 1.36602 1.36602 1.44107 1.44107 1.36602 1.36602 1.44107 1.44107 1.44108 1.44108 1.48611 1.48611 1.44108 1.44108 1.48611 1.48611 1.48611 1.48611 1.50112 1.50112 1.48611 1.48611 1.50112 1.50112 0.969897 0.866403 0.988503 0.858917 1.0374 0.969897 1.06515 0.988503 1.01281 0.955269 1.0374 0.969897 0.955269 0.872308 0.969897 0.866403 0.642962 0.521151 0.858917 0.826952 0 0 0.642962 0.521151 0 0 0.521151 0.440349 0.521151 0.440349 0.826952 0.763284 0.793133 0.800161 0.986985 0.993365 0.787582 0.793133 0.981843 0.986985 0.558145 0.56271 0.787582 0.793133 0.56271 0.568568 0.793133 0.800161 1.36602 1.36602 1.44107 1.44107 1.36602 1.36602 1.44107 1.44107 1.26094 1.26094 1.36602 1.36602 1.26094 1.26094 1.36602 1.36602 0.765596 0.540424 0.765592 0.54042 0.765592 0.54042 0.765588 0.540417 0.960736 0.765592 0.960733 0.765588 0.96074 0.765596 0.960736 0.765592 1.17366 1.05169 1.16891 1.03619 1.25271 1.17366 1.25886 1.16891 1.24247 1.17587 1.25271 1.17366 1.17587 1.06795 1.17366 1.05169 1.12583 0.960698 1.12583 0.96069 1.12583 0.96069 1.12582 0.960679 1.26095 1.12583 1.26095 1.12582 1.26095 1.12583 1.26095 1.12583 1.26094 1.26094 1.12584 1.12584 1.26094 1.26094 1.12584 1.12584 1.12584 1.12584 0.960717 0.960718 1.12584 1.12584 0.960717 0.960717 1.44106 1.44106 1.48609 1.48609 1.44106 1.44106 1.48609 1.48608 1.4860