# vtk DataFile Version 3.0
#This file was generated by the deal.II library on 2020/11/21 at 20:25:31
ASCII
DATASET UNSTRUCTURED_GRID

POINTS 26412 double
1.69187 8.72524 0
1.04531 9.16465 0
1.30255 8.04898 0
0.735179 8.34257 0
2.33843 8.28584 0
1.69187 8.72524 0
1.86993 7.7554 0
1.30255 8.04898 0
2.80693 8.81627 0
2.08118 9.4015 0
2.33843 8.28584 0
1.69187 8.72524 0
2.08118 9.4015 0
1.35544 9.98674 0
1.69187 8.72524 0
1.04531 9.16465 0
-19.2768 16.0726 0
-17.6802 15.8982 0
-18.9849 17.564 0
-17.1877 17.3893 0
-20.8735 16.2469 0
-19.2768 16.0726 0
-20.782 17.7386 0
-18.9849 17.564 0
-20.965 14.7552 0
-19.5688 14.5811 0
-20.8735 16.2469 0
-19.2768 16.0726 0
-19.5688 14.5811 0
-18.1727 14.4071 0
-19.2768 16.0726 0
-17.6802 15.8982 0
19.2883 18.8315 0
17.5113 18.5816 0
19.405 17.005 0
17.4891 16.7433 0
21.0654 19.0814 0
19.2883 18.8315 0
21.321 17.2667 0
19.405 17.005 0
20.8099 20.896 0
19.1717 20.6579 0
21.0654 19.0814 0
19.2883 18.8315 0
19.1717 20.6579 0
17.5334 20.4199 0
19.2883 18.8315 0
17.5113 18.5816 0
-8.06053 -1.53952 0
-7.80191 -2.17882 0
-7.41146 -1.30683 0
-7.18208 -1.91159 0
-8.31914 -0.900226 0
-8.06053 -1.53952 0
-7.64085 -0.702069 0
-7.41146 -1.30683 0
-8.99744 -1.09838 0
-8.70959 -1.77222 0
-8.31914 -0.900226 0
-8.06053 -1.53952 0
-8.70959 -1.77222 0
-8.42174 -2.44605 0
-8.06053 -1.53952 0
-7.80191 -2.17882 0
2.59284 6.07115 0
2.19846 6.50623 0
2.11993 5.70301 0
1.68526 6.11056 0
2.98721 5.63608 0
2.59284 6.07115 0
2.55461 5.29546 0
2.11993 5.70301 0
3.41982 5.9767 0
3.06575 6.4393 0
2.98721 5.63608 0
2.59284 6.07115 0
3.06575 6.4393 0
2.71167 6.9019 0
2.59284 6.07115 0
2.19846 6.50623 0
-6.84213 1.34909 0
-7.44622 1.27764 0
-6.73364 0.77993 0
-7.34801 0.67198 0
-6.95062 1.91826 0
-7.54443 1.88331 0
-6.84213 1.34909 0
-7.44622 1.27764 0
-7.54443 1.88331 0
-8.13825 1.84836 0
-7.44622 1.27764 0
-8.05031 1.2062 0
-7.44622 1.27764 0
-8.05031 1.2062 0
-7.34801 0.67198 0
-7.96238 0.564031 0
-9.26931 9.1231 0
-9.54374 8.25584 0
-8.44628 8.98803 0
-8.65793 8.26318 0
-8.99489 9.99036 0
-9.26931 9.1231 0
-8.23463 9.71287 0
-8.44628 8.98803 0
-9.75515 10.2679 0
-10.0923 9.25818 0
-8.99489 9.99036 0
-9.26931 9.1231 0
-10.0923 9.25818 0
-10.4295 8.24851 0
-9.26931 9.1231 0
-9.54374 8.25584 0
18.0103 -9.38475 0
16.4618 -9.56969 0
18.0596 -10.8859 0
16.3503 -11.176 0
19.5589 -9.1998 0
18.0103 -9.38475 0
19.7689 -10.5958 0
18.0596 -10.8859 0
-0.828251 13.5371 0
-0.636022 12.7209 0
-0.0401346 13.7224 0
0.219989 13.1284 0
-1.02048 14.3533 0
-0.828251 13.5371 0
-0.300258 14.3164 0
-0.0401346 13.7224 0
-1.7407 14.3902 0
-1.61637 13.3518 0
-1.02048 14.3533 0
-0.828251 13.5371 0
-1.61637 13.3518 0
-1.49203 12.3134 0
-0.828251 13.5371 0
-0.636022 12.7209 0
1.79066 4.67972 0
1.39126 4.45837 0
2.06502 4.27043 0
1.62623 3.9874 0
-22.4609 14.8263 0
-22.4044 16.3166 0
-23.9567 14.8974 0
-23.9352 16.3864 0
-20.965 14.7552 0
-20.8735 16.2469 0
-22.4609 14.8263 0
-22.4044 16.3166 0
-20.8735 16.2469 0
-20.782 17.7386 0
-22.4044 16.3166 0
-22.3479 17.807 0
-22.4044 16.3166 0
-22.3479 17.807 0
-23.9352 16.3864 0
-23.9137 17.8754 0
-14.714 -22.5266 0
-16.2289 -22.4716 0
-14.8034 -24.0006 0
-16.331 -23.9686 0
-14.6246 -21.0525 0
-16.1267 -20.9746 0
-14.714 -22.5266 0
-16.2289 -22.4716 0
-16.1267 -20.9746 0
-17.6289 -20.8967 0
-16.2289 -22.4716 0
-17.7438 -22.4167 0
-16.2289 -22.4716 0
-17.7438 -22.4167 0
-16.331 -23.9686 0
-17.8586 -23.9367 0
-20.8646 22.3996 0
-19.301 22.427 0
-20.9393 23.9476 0
-19.3999 23.9723 0
-20.7898 20.8515 0
-19.202 20.8818 0
-20.8646 22.3996 0
-19.301 22.427 0
-19.202 20.8818 0
-17.6143 20.912 0
-19.301 22.427 0
-17.7374 22.4545 0
-19.301 22.427 0
-17.7374 22.4545 0
-19.3999 23.9723 0
-17.8604 23.9969 0
-11.7755 1.15436 0
-11.7435 0.240897 0
-10.8977 1.03469 0
-10.8997 0.251864 0
-11.8074 2.06783 0
-11.7755 1.15436 0
-10.8957 1.81752 0
-10.8977 1.03469 0
-12.7191 2.31814 0
-12.6532 1.27403 0
-11.8074 2.06783 0
-11.7755 1.15436 0
-12.6532 1.27403 0
-12.5874 0.22993 0
-11.7755 1.15436 0
-11.7435 0.240897 0
-17.5076 1.51414 0
-17.0784 0.681977 0
-16.6573 1.91558 0
-16.3032 1.06099 0
-17.9368 2.34631 0
-17.5076 1.51414 0
-17.0114 2.77016 0
-16.6573 1.91558 0
-18.8622 1.92245 0
-18.3579 1.11271 0
-17.9368 2.34631 0
-17.5076 1.51414 0
-18.3579 1.11271 0
-17.8536 0.302965 0
-17.5076 1.51414 0
-17.0784 0.681977 0
-9.1475 3.89025 0
-8.85321 3.21356 0
-8.53017 4.21661 0
-8.08111 3.35552 0
-9.44179 4.56694 0
-9.1475 3.89025 0
-8.97923 5.0777 0
-8.53017 4.21661 0
-9.90434 4.05618 0
-9.76483 3.56389 0
-9.44179 4.56694 0
-9.1475 3.89025 0
-9.76483 3.56389 0
-9.62532 3.0716 0
-9.1475 3.89025 0
-8.85321 3.21356 0
-0.180357 4.8195 0
0.266355 4.96158 0
-0.33517 5.31195 0
0.142938 5.44057 0
0.266355 4.96158 0
0.713068 5.10366 0
0.142938 5.44057 0
0.621047 5.56919 0
0.142938 5.44057 0
0.621047 5.56919 0
0.0195212 5.91956 0
0.529026 6.03471 0
-0.33517 5.31195 0
0.142938 5.44057 0
-0.489983 5.8044 0
0.0195212 5.91956 0
-10.8957 1.81752 0
-10.8977 1.03469 0
-10.1796 1.79181 0
-10.149 1.04742 0
-10.8977 1.03469 0
-10.8997 0.251864 0
-10.149 1.04742 0
-10.1184 0.303019 0
-10.149 1.04742 0
-10.1184 0.303019 0
-9.4004 1.06014 0
-9.33723 0.354175 0
-10.1796 1.79181 0
-10.149 1.04742 0
-9.46356 1.76611 0
-9.4004 1.06014 0
-14.4732 4.40515 0
-13.5566 4.54022 0
-14.4648 5.30323 0
-13.3291 5.40771 0
-15.3898 4.27007 0
-14.4732 4.40515 0
-15.6006 5.19875 0
-14.4648 5.30323 0
-15.179 3.34139 0
-14.4816 3.50706 0
-15.3898 4.27007 0
-14.4732 4.40515 0
-14.4816 3.50706 0
-13.7842 3.67273 0
-14.4732 4.40515 0
-13.5566 4.54022 0
-6.43325 -0.368616 0
-6.2383 -0.920089 0
-5.8752 -0.227107 0
-5.69897 -0.757495 0
-6.2383 -0.920089 0
-6.04335 -1.47156 0
-5.69897 -0.757495 0
-5.52273 -1.28788 0
-0.108487 6.50201 0
0.0195212 5.91956 0
0.501912 6.57023 0
0.529026 6.03471 0
-0.236495 7.08447 0
-0.108487 6.50201 0
0.474798 7.10574 0
0.501912 6.57023 0
-0.947789 7.0632 0
-0.718886 6.4338 0
-0.236495 7.08447 0
-0.108487 6.50201 0
16.986 14.5403 0
15.8721 13.975 0
17.3668 13.2424 0
16.0229 13.017 0
18.0999 15.1055 0
16.986 14.5403 0
18.7108 13.4678 0
17.3668 13.2424 0
17.4891 16.7433 0
16.6052 15.8381 0
18.0999 15.1055 0
16.986 14.5403 0
16.6052 15.8381 0
15.7212 14.9329 0
16.986 14.5403 0
15.8721 13.975 0
-2.59736 17.5569 0
-2.68983 16.4525 0
-1.45111 17.4404 0
-1.57722 16.3503 0
-2.50489 18.6614 0
-2.59736 17.5569 0
-1.325 18.5305 0
-1.45111 17.4404 0
-3.68477 18.7922 0
-3.74361 17.6734 0
-2.50489 18.6614 0
-2.59736 17.5569 0
-3.74361 17.6734 0
-3.80244 16.5546 0
-2.59736 17.5569 0
-2.68983 16.4525 0
2.02947 15.8647 0
0.817917 15.7136 0
2.33885 14.9087 0
1.30037 14.7161 0
2.33885 14.9087 0
1.30037 14.7161 0
2.64823 13.9527 0
1.78282 13.7185 0
3.37733 15.1013 0
2.33885 14.9087 0
3.51364 14.1869 0
2.64823 13.9527 0
3.24102 16.0157 0
2.02947 15.8647 0
3.37733 15.1013 0
2.33885 14.9087 0
-9.55622 6.15964 0
-9.75854 5.46765 0
-8.89968 5.94511 0
-8.97923 5.0777 0
-9.3539 6.85162 0
-9.55622 6.15964 0
-8.82012 6.81252 0
-8.89968 5.94511 0
-9.88768 6.89073 0
-10.2128 6.37417 0
-9.3539 6.85162 0
-9.55622 6.15964 0
-10.2128 6.37417 0
-10.5378 5.8576 0
-9.55622 6.15964 0
-9.75854 5.46765 0
43.2848 -22.7161 0
43.3003 -20.2938 0
41.0642 -22.788 0
41.0853 -20.3946 0
43.2693 -25.1383 0
43.2848 -22.7161 0
41.0432 -25.1813 0
41.0642 -22.788 0
45.4955 -25.0953 0
45.5054 -22.6441 0
43.2693 -25.1383 0
43.2848 -22.7161 0
45.5054 -22.6441 0
45.5152 -20.193 0
43.2848 -22.7161 0
43.3003 -20.2938 0
0.342548 -11.5035 0
1.1879 -11.5226 0
0.359388 -10.7018 0
1.16795 -10.7252 0
-0.502808 -11.4843 0
0.342548 -11.5035 0
-0.449174 -10.6784 0
0.359388 -10.7018 0
-0.556441 -12.2902 0
0.325709 -12.3051 0
-0.502808 -11.4843 0
0.342548 -11.5035 0
0.325709 -12.3051 0
1.20786 -12.32 0
0.342548 -11.5035 0
1.1879 -11.5226 0
-3.54757 4.28848 0
-3.58717 4.79873 0
-3.96032 4.31677 0
-4.06483 4.76794 0
-3.58717 4.79873 0
-3.62676 5.30898 0
-4.06483 4.76794 0
-4.16933 5.21911 0
-4.06483 4.76794 0
-4.16933 5.21911 0
-4.54249 4.73715 0
-4.7119 5.12923 0
-3.96032 4.31677 0
-4.06483 4.76794 0
-4.37307 4.34507 0
-4.54249 4.73715 0
0.420674 -8.52849 0
1.14414 -8.55326 0
0.440344 -7.83798 0
1.13527 -7.86083 0
-0.302795 -8.50372 0
0.420674 -8.52849 0
-0.254581 -7.81513 0
0.440344 -7.83798 0
-0.35101 -9.1923 0
0.401005 -9.219 0
-0.302795 -8.50372 0
0.420674 -8.52849 0
0.401005 -9.219 0
1.15302 -9.24569 0
0.420674 -8.52849 0
1.14414 -8.55326 0
-15.9314 -1.42279 0
-15.5265 -2.05511 0
-15.408 -0.939205 0
-15.1613 -1.44981 0
-16.3362 -0.790479 0
-15.9314 -1.42279 0
-15.6546 -0.428595 0
-15.408 -0.939205 0
-17.0179 -1.15236 0
-16.4548 -1.90638 0
-16.3362 -0.790479 0
-15.9314 -1.42279 0
-16.4548 -1.90638 0
-15.8917 -2.66041 0
-15.9314 -1.42279 0
-15.5265 -2.05511 0
0.380197 -9.9604 0
1.16049 -9.98546 0
0.401005 -9.219 0
1.15302 -9.24569 0
-0.400092 -9.93533 0
0.380197 -9.9604 0
-0.35101 -9.1923 0
0.401005 -9.219 0
-0.449174 -10.6784 0
0.359388 -10.7018 0
-0.400092 -9.93533 0
0.380197 -9.9604 0
0.359388 -10.7018 0
1.16795 -10.7252 0
0.380197 -9.9604 0
1.16049 -9.98546 0
-0.158402 -6.56311 0
-0.771133 -6.47582 0
-0.206491 -7.18912 0
-0.865072 -7.10233 0
-0.771133 -6.47582 0
-1.38386 -6.38853 0
-0.865072 -7.10233 0
-1.52365 -7.01553 0
-0.865072 -7.10233 0
-1.52365 -7.01553 0
-0.959011 -7.72883 0
-1.66344 -7.64253 0
-0.206491 -7.18912 0
-0.865072 -7.10233 0
-0.254581 -7.81513 0
-0.959011 -7.72883 0
-11.7645 7.97636 0
-12.2033 7.29965 0
-11.1014 7.54413 0
-11.7733 6.83975 0
-11.3256 8.65308 0
-11.7645 7.97636 0
-10.4295 8.24851 0
-11.1014 7.54413 0
-12.2216 9.05765 0
-12.4275 8.4086 0
-11.3256 8.65308 0
-11.7645 7.97636 0
-12.4275 8.4086 0
-12.6334 7.75954 0
-11.7645 7.97636 0
-12.2033 7.29965 0
-9.51761 -11.1033 0
-8.88153 -10.5964 0
-9.97645 -10.4398 0
-9.51078 -9.97491 0
-10.1537 -11.6102 0
-9.51761 -11.1033 0
-10.4421 -10.9046 0
-9.97645 -10.4398 0
-9.86526 -12.3158 0
-9.05877 -11.7669 0
-10.1537 -11.6102 0
-9.51761 -11.1033 0
-9.05877 -11.7669 0
-8.25228 -11.2179 0
-9.51761 -11.1033 0
-8.88153 -10.5964 0
1.90071 6.94816 0
1.51062 6.56766 0
2.19846 6.50623 0
1.68526 6.11056 0
2.2908 7.32865 0
1.90071 6.94816 0
[...]
POINT_DATA 26412
SCALARS solution_0 double 1
LOOKUP_TABLE default
1.036 1.0316 1.03663 1.03228 1.04061 1.036 1.04102 1.03663 1.04006 1.03531 1.04061 1.036 1.03531 1.03083 1.036 1.0316 1.00058 1.00078 1.00096 1.00135 1.00039 1.00058 1.00063 1.00096 1.00012 1.00017 1.00039 1.00058 1.00017 1.00022 1.00058 1.00078 1.03188 1.03187 1.03307 1.03322 1.03185 1.03188 1.0329 1.03307 1.03087 1.0308 1.03185 1.03188 1.0308 1.03068 1.03188 1.03187 0.971466 0.973208 0.966294 0.968305 0.97069 0.971466 0.965413 0.966294 0.975013 0.975689 0.97069 0.971466 0.975689 0.977202 0.971466 0.973208 1.05625 1.05072 1.05771 1.05099 1.06169 1.05625 1.06423 1.05771 1.05933 1.05468 1.06169 1.05625 1.05468 1.05003 1.05625 1.05072 0.955987 0.961702 0.953855 0.960274 0.959072 0.963992 0.955987 0.961702 0.963992 0.968213 0.961702 0.966518 0.961702 0.966518 0.960274 0.965582 0.995779 0.993596 0.995811 0.993671 0.997884 0.995779 0.997826 0.995811 0.998026 0.995914 0.997884 0.995779 0.995914 0.993756 0.995779 0.993596 1.03802 1.03885 1.03681 1.03737 1.03728 1.03802 1.03622 1.03681 1.01949 1.02043 1.0214 1.02252 1.01869 1.01949 1.02038 1.0214 1.01701 1.01747 1.01869 1.01949 1.01747 1.01799 1.01949 1.02043 1.0692 1.06998 1.07718 1.08071 1.00007 1.00025 1.00004 1.00016 1.00012 1.00039 1.00007 1.00025 1.00039 1.00063 1.00025 1.00041 1.00025 1.00041 1.00016 1.00026 1.00442 1.00353 1.00444 1.00355 1.00435 1.00346 1.00442 1.00353 1.00346 1.00265 1.00353 1.00271 1.00353 1.00271 1.00355 1.00274 1.0011 1.00156 1.00117 1.00165 1.00099 1.00143 1.0011 1.00156 1.00143 1.00194 1.00156 1.00209 1.00156 1.00209 1.00165 1.00219 0.984261 0.984248 0.981347 0.981443 0.984763 0.984261 0.981696 0.981347 0.987267 0.986679 0.984763 0.984261 0.986679 0.986588 0.984261 0.984248 0.99479 0.994307 0.993862 0.993351 0.995308 0.99479 0.994433 0.993862 0.996094 0.995619 0.995308 0.99479 0.995619 0.99516 0.99479 0.994307 0.979285 0.975999 0.978473 0.97305 0.982331 0.979285 0.982964 0.978473 0.98216 0.980449 0.982331 0.979285 0.980449 0.978791 0.979285 0.975999 1.03879 1.04633 1.03289 1.04006 1.04633 1.05174 1.04006 1.04574 1.04006 1.04574 1.03542 1.04102 1.03289 1.04006 1.02856 1.03542 0.981696 0.981347 0.978935 0.978366 0.981347 0.981443 0.978366 0.97831 0.978366 0.97831 0.974822 0.974538 0.978935 0.978366 0.975703 0.974822 0.992033 0.990799 0.992796 0.991464 0.99314 0.992033 0.993986 0.992796 0.992344 0.991408 0.99314 0.992033 0.991408 0.990391 0.992033 0.990799 0.952483 0.953516 0.944164 0.94537 0.953516 0.956242 0.94537 0.948691 1.03135 1.03542 1.03754 1.04102 1.02845 1.03135 1.03476 1.03754 1.02155 1.02434 1.02845 1.03135 1.03504 1.03565 1.03612 1.03657 1.03451 1.03504 1.0357 1.03612 1.03322 1.03394 1.03451 1.03504 1.03394 1.03475 1.03504 1.03565 1.01494 1.01488 1.01683 1.01691 1.01493 1.01494 1.01672 1.01683 1.01322 1.01313 1.01493 1.01494 1.01313 1.01295 1.01494 1.01488 1.02382 1.02175 1.02538 1.02355 1.02538 1.02355 1.0272 1.02569 1.02695 1.02538 1.02845 1.0272 1.02563 1.02382 1.02695 1.02538 0.9876 0.985803 0.985989 0.982964 0.989555 0.9876 0.989032 0.985989 0.990107 0.989043 0.989555 0.9876 0.989043 0.988165 0.9876 0.985803 1.02643 1.02716 1.02662 1.02734 1.02589 1.02643 1.02609 1.02662 1.0257 1.02625 1.02589 1.02643 1.02625 1.02699 1.02643 1.02716 1.02972 1.03201 1.03138 1.03385 1.02721 1.02972 1.02865 1.03138 1.02594 1.02827 1.02721 1.02972 1.02827 1.03041 1.02972 1.03201 0.970967 0.978861 0.969421 0.975827 0.978861 0.985093 0.975827 0.981053 0.975827 0.981053 0.974084 0.97836 0.969421 0.975827 0.968904 0.974084 1.03752 1.04074 1.04023 1.04379 1.03383 1.03752 1.03609 1.04023 1.03192 1.03525 1.03383 1.03752 1.03525 1.03818 1.03752 1.04074 0.993378 0.993191 0.992475 0.992358 0.993661 0.993378 0.992657 0.992475 0.994556 0.994213 0.993661 0.993378 0.994213 0.993984 0.993378 0.993191 1.03317 1.03585 1.03525 1.03818 1.03016 1.03317 1.03192 1.03525 1.02865 1.03138 1.03016 1.03317 1.03138 1.03385 1.03317 1.03585 1.0416 1.03614 1.03858 1.03362 1.03614 1.03013 1.03362 1.02824 1.03362 1.02824 1.03156 1.0267 1.03858 1.03362 1.03609 1.03156 0.993826 0.992955 0.992576 0.991756 0.99485 0.993826 0.993756 0.992576 0.995779 0.994877 0.99485 0.993826 0.994877 0.994007 0.993826 0.992955 1.00416 1.00428 1.00275 1.00254 1.00402 1.00416 1.0029 1.00275 1.00505 1.00551 1.00402 1.00416 1.00551 1.00605 1.00416 1.00428 1.04584 1.04605 1.05072 1.05099 1.04544 1.04584 1.05003 1.05072 1.04102 1.04145 1.04544 1.04584 1.04145 1.04184 1.04584 1.04605 1.03531 1.03567 1.03083 1.03204 1.04006 1.0392 1.03531 1.03567 1.0392 1.03821 1.03567 1.03567 1.03567 1.03567 1.03204 1.03285 1.05323 1.04913 1.05468 1.05003 1.05736 1.05323 1.05933 1.05468 1.0555 1.0518 1.05736 1.05323 1.0518 1.04812 1.05323 1.04913 1.00098 1.00109 1.00067 1.00082 1.00084 1.00098 1.00053 1.00067 1.00118 1.00129 1.00084 1.00098 1.00129 1.00136 1.00098 1.00109 0.99798 0.998624 0.998227 0.998796 0.998227 0.998796 0.998524 0.99902 0.997575 0.998227 0.997934 0.998524 0.997233 0.99798 0.997575 0.998227 0.954898 0.950957 0.961036 0.958755 0.948289 0.942451 0.954898 0.950957 0.988889 0.987267 0.988766 0.986364 0.988766 0.986364 0.989048 0.985958 0.990799 0.988766 0.991464 0.989048 0.990391 0.988889 0.990799 0.988766 1.05067 1.05566 1.05536 1.061 1.04473 1.05067 1.04855 1.05536 1.0416 1.04686 1.04473 1.05067 1.04686 1.05127 1.05067 1.05566 1.0086 1.01101 1.00931 1.01166 1.01101 1.0136 1.01166 1.01413 1.01166 1.01413 1.01239 1.01466 1.00931 1.01166 1.01013 1.01239 0.995619 0.996222 0.99516 0.995749 0.996094 0.996683 0.995619 0.996222 0.996683 0.997233 0.996222 0.996778 0.996222 0.996778 0.995749 0.996285 1.02437 1.0251 1.02502 1.02568 1.02502 1.02568 1.02591 1.02649 1.02419 1.02502 1.02517 1.02591 1.02347 1.02437 1.02419 1.02502 1.02804 1.03083 1.02972 1.03204 1.02972 1.03204 1.03105 1.03285 1.02778 1.02972 1.02945 1.03105 1.0258 1.02804 1.02778 1.02972 0.99488 0.991758 0.991692 0.988856 0.991758 0.988605 0.988856 0.98623 0.988856 0.98623 0.985232 0.983467 0.991692 0.988856 0.987473 0.985232 1.01969 1.02111 1.02019 1.02183 1.02019 1.02183 1.02096 1.02293 1.01842 1.02019 1.01887 1.02096 1.01814 1.01969 1.01842 1.02019 0.998621 0.997458 0.998497 0.997143 0.998782 0.997777 0.998621 0.997458 0.997777 0.996728 0.997458 0.996263 0.997458 0.996263 0.997143 0.995779 1.02984 1.0308 1.03012 1.03111 1.02896 1.02984 1.02922 1.03012 1.02869 1.02956 1.02896 1.02984 1.02956 1.03051 1.02984 1.0308 1.03247 1.03253 1.0343 1.03427 1.03226 1.03247 1.0342 1.0343 1.03049 1.03079 1.03226 1.03247 1.03079 1.03094 1.03247 1.03253 0.999747 0.999729 1.00022 1.00029 0.999249 0.999131 0.999747 0.999729 0.999131 0.998992 0.999729 0.999696 0.999729 0.999696 1.00029 1.00036 1.00907 1.01112 1.0086 1.01101 1.00926 1.01105 1.00907 1.01112 1.01105 1.01298 1.01112 1.01331 1.01112 1.01331 1.01101 1.0136 1.00335 1.00257 1.00346 1.00265 1.00422 1.00335 1.00435 1.00346 1.00402 1.00318 1.00422 1.00335 1.00318 1.00244 1.00335 1.00257 0.992794 0.992217 0.99159 0.990937 0.993446 0.992794 0.992344 0.99159 0.994433 0.993862 0.993446 0.992794 0.993862 0.993351 0.992794 0.992217 1.02647 1.02671 1.02694 1.02715 1.02694 1.02715 1.02759 1.02777 1.02662 1.02694 1.02731 1.02759 1.02613 1.02647 1.02662 1.02694 0.999426 1.00061 0.99939 1.00094 0.998233 0.999426 0.997909 0.99939 0.998534 0.999501 0.998233 0.999426 0.999501 1.00042 0.999426 1.00061 1.02407 1.02572 1.03864 1.04049 1.01262 1.01367 1.02407 1.02572 1.01367 1.01455 1.02572 1.02679 1.02572 1.02679 1.04049 1.04083 0.989372 0.986783 0.990131 0.988165 0.991425 0.989372 0.991756 0.990131 0.991464 0.989048 0.991425 0.989372 0.989048 0.985958 0.989372 0.986783 1.027 1.02746 1.02831 1.02864 1.02639 1.027 1.02784 1.02831 1.02517 1.02591 1.02639 1.027 1.02591 1.02649 1.027 1.02746 1.04475 1.04474 1.04662 1.04675 1.04453 1.04475 1.04613 1.04662 1.04291 1.04301 1.04453 1.04475 1.04301 1.04291 1.04475 1.04474 1.01965 1.01921 1.02138 1.02114 1.01921 1.01887 1.02114 1.02096 1.02114 1.02096 1.02304 1.02293 1.02138 1.02114 1.02312 1.02304 1.0086 1.00931 1.00695 1.0075 1.00931 1.01013 1.0075 1.00812 1.0075 1.00812 1.00551 1.00605 1.00695 1.0075 1.00505 1.00551 1.03099 1.03035 1.03098 1.0303 1.03035 1.02987 1.0303 1.02977 1.0303 1.02977 1.03019 1.0296 1.03098 1.0303 1.03094 1.03019 1.0416 1.03858 1.04686 1.04322 1.03858 1.03609 1.04322 1.04023 1.04322 1.04023 1.04716 1.04379 1.04686 1.04322 1.05127 1.04716 1.00519 1.00233 1.00234 0.999912 1.00727 1.00419 1.00519 1.00233 1.00419 1.00142 1.00233 0.999874 1.00233 0.999874 0.999912 0.997897 0.999131 0.998503 0.998992 0.998246 0.999249 0.99873 0.999131 0.998503 0.99873 0.998184 0.998503 0.997844 0.998503 0.997844 0.998246 0.99746 0.998079 0.998483 0.999934 1.00021 0.999934 1.00021 1.00169 1.00183 0.999744 0.999934 1.0016 1.00169 0.997826 0.998079 0.999744 0.999934 1.00269 1.00345 1.00174 1.00233 1.00174 1.00233 1.00061 1.00094 1.00132 1.00174 1.00042 1.00061 1.0021 1.00269 1.00132 1.00174 0.998936 0.9993 0.998665 0.999121 0.998514 0.998936 0.998129 0.998665 0.99889 0.999205 0.998514 0.998936 0.999205 0.999481 0.998936 0.9993 1.03162 1.03092 1.0331 1.03251 1.03215 1.03162 1.03353 1.0331 1.03092 1.03029 1.03215 1.03162 1.03029 1.0295 1.03162 1.03092 1.03034 1.0295 1.03216 1.03135 1.0295 1.02845 1.03135 1.03031 1.03135 1.03031 1.03346 1.03244 1.03216 1.03135 1.03419 1.03346 0.986364 0.984202 0.985958 0.984017 0.987267 0.984763 0.986364 0.984202 0.984763 0.981696 0.984202 0.981689 0.984202 0.981689 0.984017 0.98193 1.02214 1.0207 1.02824 1.0267 1.02411 1.02214 1.03013 1.02824 0.99297 0.993623 0.991822 0.992609 0.993984 0.994534 0.99297 0.993623 0.994534 0.995221 0.993623 0.994413 0.993623 0.994413 0.992609 0.993503 1.0136 1.01572 1.01413 1.01635 1.01572 1.01789 1.01635 1.01858 1.01635 1.01858 1.01699 1.0193 1.01413 1.01635 1.01466 1.01699 0.876591 0.891672 0.870184 0.89015 0.891672 0.904027 0.89015 0.905459 0.89015 0.905459 0.892512 0.910845 0.870184 0.89015 0.866891 0.892512 1.01897 1.0183 1.02292 1.02287 1.01938 1.01897 1.02285 1.02292 1.01613 1.01529 1.01938 1.01897 1.01529 1.01412 1.01897 1.0183 1.01243 1.01276 1.01026 1.01075 1.01276 1.01295 1.01075 1.01108 1.01075 1.01108 1.00894 1.00937 1.01026 1.01075 1.00833 1.00894 0.998129 0.998665 0.997664 0.998297 0.998665 0.999121 0.998297 0.998856 0.998297 0.998856 0.997957 0.998624 0.997664 0.998297 0.997197 0.997957 1.01117 1.01159 1.00879 1.00916 1.01159 1.01208 1.00916 1.0096 1.00916 1.0096 1.00667 1.00704 1.00879 1.00916 1.00639 1.00667 1.03082 1.03253 1.03246 1.03427 1.02891 1.03082 1.03041 1.03246 1.02757 1.02938 1.02891 1.03082 1.02938 1.031 1.03082 1.03253 1.03111 1.02945 1.03321 1.03105 1.03321 1.03105 1.03567 1.03285 1.03505 1.03321 1.03821 1.03567 1.03244 1.03111 1.03505 1.03321 0.991692 0.987473 0.995742 0.992851 0.995742 0.992851 0.999874 0.997897 0.998009 0.995742 1.00142 0.999874 0.99488 0.991692 0.998009 0.995742 1.03592 1.03683 1.03607 1.03666 1.03683 1.03783 1.03666 1.03728 1.03666 1.03728 1.03592 1.03622 1.03607 1.03666 1.03562 1.03592 1.03031 1.02901 1.03244 1.03111 1.02845 1.0272 1.03031 1.02901 1.0272 1.02569 1.02901 1.02743 1.02901 1.02743 1.03111 1.02945 1.06428 1.06741 1.06619 1.06931 1.06151 1.06428 1.06337 1.06619 0.998524 0.99902 0.998724 0.999155 0.998724 0.999155 0.998942 0.999307 0.998216 0.998724 0.998516 0.998942 0.997934 0.998524 0.998216 0.998724 1.0692 1.06664 1.0632 1.06022 1.06664 1.06423 1.06022 1.05771 1.06022 1.05771 1.05393 1.05099 1.0632 1.06022 1.05755 1.05393 0.987473 0.985232 0.983476 0.980999 0.985232 0.983467 0.980999 0.979247 0.980999 0.979247 0.97572 0.974075 0.983476 0.980999 0.97836 0.97572 1.02116 1.02258 1.02175 1.02355 1.02038 1.0214 1.02116 1.02258 1.0214 1.02252 1.02258 1.02423 1.02258 1.02423 1.02355 1.02569 1.00427 1.00578 1.00493 1.00628 1.00301 1.00427 1.0038 1.00493 1.00189 1.00334 1.00301 1.00427 1.00334 1.0051 1.00427 1.00578 1.03972 1.03967 1.04124 1.04126 1.03967 1.03945 1.04126 1.04109 1.04126 1.04109 1.04301 1.04291 1.04124 1.04126 1.04291 1.04301 0.994867 0.999003 0.999024 1.00288 0.999003 1.00412 1.00288 1.00756 1.00288 1.00756 1.00591 1.01018 0.999024 1.00288 1.00234 1.00591 1.03278 1.03275 1.03411 1.03405 1.03272 1.03278 1.03408 1.03411 1.03148 1.03155 1.03272 1.03278 1.03155 1.03155 1.03278 1.03275 0.990487 0.990193 0.988739 0.988537 0.988739 0.988537 0.986679 0.986588 0.989229 0.988739 0.987267 0.986679 0.990937 0.990487 0.989229 0.988739 1.02814 1.02838 1.02915 1.02933 1.02731 1.02759 1.02814 1.02838 1.02759 1.02777 1.02838 1.02852 1.02838 1.02852 1.02933 1.02943 1.03709 1.03693 1.03751 1.03746 1.03693 1.03647 1.03746 1.03699 1.03746 1.03699 1.03806 1.03758 1.02619 1.02461 1.02677 1.02563 1.02765 1.02619 1.02783 1.02677 1.02744 1.02566 1.02765 1.02619 1.02566 1.02372 1.02619 1.02461 1.03421 1.03451 1.03528 1.0357 1.0339 1.03421 1.0349 1.03528 1.0329 1.03307 1.0339 1.03421 1.03307 1.03322 1.03421 1.03451 1.04613 1.04662 1.04738 1.04824 1.04662 1.04675 1.04824 1.04861 1.04824 1.04861 1.04958 1.05042 1.0259 1.02694 1.02482 1.02589 1.02482 1.02589 1.02394 1.02504 1.02359 1.02482 1.02268 1.02394 1.02468 1.0259 1.02359 1.02482 1.01711 1.0153 1.02249 1.02155 1.0183 1.01711 1.02287 1.02249 1.01412 1.01247 1.0183 1.01711 1.01247 1.01018 1.01711 1.0153 1.00171 1.00135 1.0024 1.00205 1.0024 1.00205 1.0032 1.00291 1.00262 1.0024 1.00338 1.0032 1.00194 1.00171 1.00262 1.0024 0.999817 0.999863 1.00005 1.00003 0.999572 0.999689 0.999817 0.999863 0.999689 0.999803 0.999863 0.999918 0.999863 0.999918 1.00003 1.00003 1.03094 1.03117 1.03253 1.03266 1.03117 1.03127 1.03266 1.03267 1.03266 1.03267 1.03428 1.03418 1.03253 1.03266 1.03427 1.03428 1.01391 1.01289 1.01728 1.01613 1.0146 1.01391 1.01799 1.01728 1.01151 1.01089 1.0146 1.01391 1.01089 1.01001 1.01391 1.01289 0.998772 1.00105 0.998664 1.00116 0.998664 1.00116 0.998653 1.00146 0.995948 0.998664 0.995771 0.998653 0.996183 0.998772 0.995948 0.998664 1.03331 1.03391 1.03339 1.03395 1.03391 1.0346 1.03395 1.03461 1.03395 1.03461 1.03305 1.0337 1.03339 1.03395 1.03249 1.03305 0.960274 0.965582 0.959342 0.964989 0.959342 0.964989 0.959631 0.965413 0.952433 0.959342 0.952483 0.959631 0.953855 0.960274 0.952433 0.959342 0.999603 0.999507 0.9993 0.999121 0.999703 0.999603 0.999481 0.9993 0.999868 0.999825 0.999703 0.999603 0.999825 0.999783 0.999603 0.999507 1.02423 1.02586 1.02569 1.02743 1.02252 1.02403 1.02423 1.02586 1.02403 1.0258 1.02586 1.02778 1.02586 1.02778 1.02743 1.02945 0.991688 0.989555 0.991412 0.989032 0.993596 0.991688 0.993671 0.991412 0.993756 0.992077 0.993596 0.991688 0.992077 0.990107 0.991688 0.989555 1.00046 1.00061 1.00009 1.00014 1.00082 1.00104 1.00046 1.00061 1.00104 1.00128 1.00061 1.00076 1.00061 1.00076 1.00014 1.00019 1.03042 1.03146 1.03045 1.03153 1.03045 1.03153 1.03043 1.03155 1.02948 1.03045 1.02943 1.03043 1.02948 1.03042 1.02948 1.03045 0.999501 0.999528 1.00042 1.00028 0.998534 0.998741 0.999501 0.999528 0.998741 0.998943 0.999528 0.999581 0.999528 0.999581 1.00028 1.00019 0.998653 1.00146 0.998436 1.00168 0.998436 1.00168 0.998314 1.00211 0.995112 0.998436 0.994438 0.998314 0.995771 0.998653 0.995112 0.998436 1.00578 1.00726 1.00628 1.00773 1.0051 1.0066 1.00578 1.00726 1.0066 1.00833 1.00726 1.00894 1.00726 1.00894 1.00773 1.00937 1.03136 1.03141 1.03208 1.03212 1.0307 1.03075 1.03136 1.03141 1.03075 1.03081 1.03141 1.03145 1.03141 1.03145 1.03212 1.03216 1.04377 1.0435 1.0424 1.0418 1.04522 1.04542 1.04377 1.0435 1.04542 1.04499 1.0435 1.04269 1.0435 1.04269 1.0418 1.04072 0.996568 0.99708 0.996116 0.996529 0.996069 0.996568 0.995726 0.996116 0.996434 0.997 0.996069 0.996568 0.997 0.997562 0.996568 0.99708 1.01255 1.01436 1.00522 1.00649 1.01128 1.01255 1.00448 1.00522 1.01774 1.01928 1.01128 1.01255 1.01928 1.02147 1.01255 1.01436 0.99462 0.993116 0.994296 0.99295 0.993116 0.991464 0.99295 0.991425 0.99295 0.991425 0.992955 0.991756 0.994296 0.99295 0.994007 0.992955 0.992217 0.9918 0.990937 0.990487 0.993351 0.992959 0.992217 0.9918 0.992959 0.992657 0.9918 0.991504 0.9918 0.991504 0.990487 0.990193 1.02958 1.02891 1.02912 1.02842 1.03037 1.02958 1.02996 1.02912 1.03068 1.02997 1.03037 1.02958 1.02997 1.02934 1.02958 1.02891 1.00148 1.00147 1.01367 1.01455 1.00191 1.00148 1.01262 1.01367 0.989825 0.987992 1.00191 1.00148 0.987992 0.987385 1.00148 1.00147 0.994023 0.992796 0.993116 0.991464 0.995194 0.994023 0.99462 0.993116 0.995768 0.994874 0.995194 0.994023 0.994874 0.993986 0.994023 0.992796 1.02104 1.03019 1.01455 1.02679 1.0258 1.03233 1.02104 1.03019 1.03233 1.03896 1.03019 1.03991 1.03019 1.03991 1.02679 1.04083 1.05217 1.05658 1.04477 1.04801 1.04477 1.04801 1.03678 1.03896 1.04204 1.04477 1.03491 1.03678 1.04855 1.05217 1.04204 1.04477 0.991695 0.989501 0.989821 0.987654 0.989501 0.986753 0.987654 0.985027 0.987654 0.985027 0.986284 0.983784 0.989821 0.987654 0.988385 0.986284 0.99939 1.00094 0.99891 1.00042 0.99891 1.00042 0.998307 0.999715 0.99746 0.99891 0.996954 0.998307 0.997909 0.99939 0.99746 0.99891 1.0086 1.00695 1.00671 1.00554 1.00695 1.00505 1.00554 1.00416 1.00554 1.00416 1.00444 1.00345 1.00671 1.00554 1.00523 1.00444 1.02183 1.02312 1.02293 1.0242 1.02111 1.02238 1.02183 1.02312 1.02238 1.02347 1.02312 1.02419 1.02312 1.02419 1.0242 1.02517 1.02568 1.02621 1.02649 1.02696 1.0251 1.02568 1.02568 1.02621 1.02568 1.02613 1.02621 1.02662 1.02621 1.02662 1.02696 1.02731 0.992884 0.994749 0.991695 0.994045 0.993946 0.995421 0.992884 0.994749 0.995421 0.996954 0.994749 0.996591 0.994749 0.996591 0.994045 0.996236 0.998514 0.998129 0.998093 0.997606 0.998093 0.997606 0.997598 0.996994 0.998568 0.998093 0.998184 0.997598 0.99889 0.998514 0.998568 0.998093 1.02773 1.02696 1.02688 1.02607 1.02688 1.02607 1.02589 1.02504 1.02789 1.02688 1.02694 1.02589 1.02868 1.02773 1.02789 1.02688 1.03097 1.03094 1.0304 1.03038 1.03094 1.0309 1.03038 1.03035 1.03038 1.03035 1.02996 1.02994 1.0304 1.03038 1.02996 1.02996 0.990303 0.990583 0.988743 0.989172 0.988743 0.989172 0.986922 0.987545 0.988537 0.988743 0.986588 0.986922 0.990193 0.990303 0.988537 0.988743 1.03269 1.03215 1.03397 1.03353 1.0331 1.03269 1.03429 1.03397 1.03203 1.03154 1.0331 1.03269 1.03154 1.03092 1.03269 1.03215 0.978861 0.983899 0.985093 0.98995 0.970967 0.97573 0.978861 0.983899 0.983899 0.991078 0.98995 0.996491 0.953855 0.952433 0.946491 0.944382 0.952433 0.952483 0.944382 0.944164 1.00406 1.00375 1.00506 1.00475 1.00426 1.00406 1.00528 1.00506 1.00338 1.0032 1.00426 1.00406 1.0032 1.00291 1.00406 1.00375 1.00014 1.00025 1.00008 1.00014 1.00008 1.00014 1.00001 1.00003 1.00004 1.00008 1.00001 1.00001 1.00006 1.00014 1.00004 1.00008 1.02838 1.02985 1.02462 1.0256 1.03192 1.03383 1.02838 1.02985 1.03383 1.03609 1.02985 1.03156 1.02985 1.03156 1.0256 1.0267 1.03618 1.0367 1.03699 1.03758 1.03572 1.03618 1.03647 1.03699 1.0349 1.03528 1.03572 1.03618 1.03528 1.0357 1.03618 1.0367 1.02241 1.02155 1.0211 1.02028 1.02343 1.02241 1.02205 1.0211 1.02468 1.02359 1.02343 1.02241 1.02359 1.02268 1.02241 1.02155 0.999748 0.999564 0.999674 0.999433 0.999674 0.999433 0.999603 0.999307 0.999854 0.999674 0.999822 0.999603 0.999888 0.999748 0.999854 0.999674 0.978935 0.975703 0.97952 0.977091 0.97952 0.977091 0.980415 0.978791 0.981689 0.97952 0.98193 0.980415 0.981696 0.978935 0.981689 0.97952 0.984302 0.981355 0.982264 0.978918 0.982264 0.978918 0.980822 0.977202 0.985027 0.982264 0.983784 0.980822 0.986753 0.984302 0.985027 0.982264 0.958147 0.954898 0.962404 0.961036 0.961474 0.958147 0.964127 0.962404 0.959072 0.953985 0.961474 0.958147 0.953985 0.948289 0.958147 0.954898 1.00926 1.00764 1.00933 1.0078 1.00764 1.00622 1.0078 1.00644 1.0078 1.00644 1.00787 1.00656 1.00933 1.0078 1.00932 1.00787 1.01789 1.01819 1.01933 1.01979 1.01645 1.01659 1.01789 1.01819 1.01659 1.01672 1.01819 1.01851 1.01819 1.01851 1.01979 1.02031 0.966567 0.967206 0.972885 0.974075 0.967318 0.966567 0.972588 0.972885 0.999359 0.999449 0.998796 0.99902 0.999293 0.999359 0.998624 0.998796 0.999729 0.999736 0.999293 0.999359 0.999736 0.999754 0.999359 0.999449 1.00099 1.0011 1.00066 1.00074 1.0011 1.00117 1.00074 1.00079 1.00074 1.00079 1.00046 1.0005 1.00066 1.00074 1.00041 1.00046 1.01489 1.01645 1