# vtk DataFile Version 3.0
#This file was generated by the deal.II library on 2020/11/21 at 20:45:04
ASCII
DATASET UNSTRUCTURED_GRID

POINTS 46724 double
-17.065 -16.8876 0
-16.9513 -18.2883 0
-15.6121 -16.861 0
-15.464 -18.2609 0
-17.1788 -15.487 0
-17.065 -16.8876 0
-15.7602 -15.4612 0
-15.6121 -16.861 0
-18.5973 -15.5128 0
-18.518 -16.9143 0
-17.1788 -15.487 0
-17.065 -16.8876 0
-18.518 -16.9143 0
-18.4386 -18.3157 0
-17.065 -16.8876 0
-16.9513 -18.2883 0
-22.54 4.69438 0
-21.1507 4.81763 0
-22.6967 6.12252 0
-21.3129 6.18082 0
-23.9293 4.57113 0
-22.54 4.69438 0
-24.0804 6.06423 0
-22.6967 6.12252 0
-23.7782 3.07803 0
-22.3833 3.26624 0
-23.9293 4.57113 0
-22.54 4.69438 0
-22.3833 3.26624 0
-20.9885 3.45445 0
-22.54 4.69438 0
-21.1507 4.81763 0
-11.6468 -11.121 0
-10.7215 -11.1987 0
-11.7628 -10.1411 0
-10.875 -10.0387 0
-12.5721 -11.0433 0
-11.6468 -11.121 0
-12.6505 -10.2435 0
-11.7628 -10.1411 0
-12.4937 -11.843 0
-11.5308 -12.1008 0
-12.5721 -11.0433 0
-11.6468 -11.121 0
-11.5308 -12.1008 0
-10.568 -12.3587 0
-11.6468 -11.121 0
-10.7215 -11.1987 0
-2.50326 7.11325 0
-3.13491 7.14603 0
-2.54427 6.47215 0
-3.14696 6.48101 0
-1.87161 7.08046 0
-2.50326 7.11325 0
-1.94158 6.46329 0
-2.54427 6.47215 0
-1.80165 7.69764 0
-2.46226 7.75434 0
-1.87161 7.08046 0
-2.50326 7.11325 0
-2.46226 7.75434 0
-3.12286 7.81104 0
-2.50326 7.11325 0
-3.13491 7.14603 0
3.5911 9.16351 0
3.51861 8.35732 0
4.37179 9.07633 0
4.27849 8.2823 0
3.66359 9.9697 0
3.5911 9.16351 0
4.46509 9.87036 0
4.37179 9.07633 0
2.86209 10.069 0
2.8104 9.25069 0
3.66359 9.9697 0
3.5911 9.16351 0
2.8104 9.25069 0
2.75872 8.43233 0
3.5911 9.16351 0
3.51861 8.35732 0
-12.1495 8.87283 0
-13.0894 8.91204 0
-11.9664 7.67551 0
-13.0672 7.92355 0
-12.3326 10.0702 0
-13.1116 9.90053 0
-12.1495 8.87283 0
-13.0894 8.91204 0
-13.1116 9.90053 0
-13.8906 9.73091 0
-13.0894 8.91204 0
-14.0293 8.95125 0
-13.0894 8.91204 0
-14.0293 8.95125 0
-13.0672 7.92355 0
-14.168 8.1716 0
-6.93893 -4.74762 0
-7.57474 -4.97633 0
-6.64048 -5.39381 0
-7.28542 -5.67246 0
-6.64048 -5.39381 0
-7.28542 -5.67246 0
-6.34202 -6.03999 0
-6.99609 -6.36859 0
-5.99554 -5.11515 0
-6.64048 -5.39381 0
-5.68795 -5.71139 0
-6.34202 -6.03999 0
-6.30312 -4.51891 0
-6.93893 -4.74762 0
-5.99554 -5.11515 0
-6.64048 -5.39381 0
-4.13627 14.8846 0
-3.20346 14.7025 0
-3.72549 16.0873 0
-2.91736 15.6509 0
-3.20346 14.7025 0
-2.27064 14.5205 0
-2.91736 15.6509 0
-2.10922 15.2144 0
-2.91736 15.6509 0
-2.10922 15.2144 0
-2.63125 16.5992 0
-1.94779 15.9084 0
-3.72549 16.0873 0
-2.91736 15.6509 0
-3.31472 17.2901 0
-2.63125 16.5992 0
-12.0904 4.56424 0
-13.1499 4.35298 0
-12.0147 3.5623 0
-13.0128 3.25131 0
-13.1499 4.35298 0
-14.2095 4.14172 0
-13.0128 3.25131 0
-14.011 2.94031 0
-13.0128 3.25131 0
-14.011 2.94031 0
-12.8757 2.14963 0
-13.8124 1.73891 0
-12.0147 3.5623 0
-13.0128 3.25131 0
-11.9389 2.56035 0
-12.8757 2.14963 0
-14.4973 -1.23455 0
-15.4102 -1.14249 0
-14.5871 -2.09419 0
-15.501 -2.04948 0
-14.4074 -0.374916 0
-15.3193 -0.235495 0
-14.4973 -1.23455 0
-15.4102 -1.14249 0
-15.3193 -0.235495 0
-16.2312 -0.0960747 0
-15.4102 -1.14249 0
-16.3231 -1.05043 0
-15.4102 -1.14249 0
-16.3231 -1.05043 0
-15.501 -2.04948 0
-16.4149 -2.00478 0
-22.8325 11.8158 0
-22.8236 10.3856 0
-21.4198 11.769 0
-21.4198 10.3575 0
-24.2451 11.8627 0
-24.2275 10.4137 0
-22.8325 11.8158 0
-22.8236 10.3856 0
-24.2275 10.4137 0
-24.2099 8.96483 0
-22.8236 10.3856 0
-22.8148 8.95541 0
-22.8236 10.3856 0
-22.8148 8.95541 0
-21.4198 10.3575 0
-21.4198 8.94599 0
-11.0922 9.17528 0
-12.1495 8.87283 0
-10.8837 8.07528 0
-11.9664 7.67551 0
-10.035 9.47773 0
-11.0922 9.17528 0
-9.80091 8.47506 0
-10.8837 8.07528 0
-10.269 10.4804 0
-11.3008 10.2753 0
-10.035 9.47773 0
-11.0922 9.17528 0
-11.3008 10.2753 0
-12.3326 10.0702 0
-11.0922 9.17528 0
-12.1495 8.87283 0
43.3142 -22.7555 0
43.3354 -20.351 0
41.1074 -22.8355 0
41.1375 -20.4638 0
43.293 -25.16 0
43.3142 -22.7555 0
41.0773 -25.2073 0
41.1074 -22.8355 0
45.5086 -25.1128 0
45.521 -22.6755 0
43.293 -25.16 0
43.3142 -22.7555 0
45.521 -22.6755 0
45.5333 -20.2382 0
43.3142 -22.7555 0
43.3354 -20.351 0
-16.3231 -1.05043 0
-17.2986 -0.874468 0
-16.4149 -2.00478 0
-17.6318 -1.74455 0
-16.2312 -0.0960747 0
-16.9654 -0.00438669 0
-16.3231 -1.05043 0
-17.2986 -0.874468 0
-16.9654 -0.00438669 0
-17.6996 0.0873013 0
-17.2986 -0.874468 0
-18.2742 -0.69851 0
-17.2986 -0.874468 0
-18.2742 -0.69851 0
-17.6318 -1.74455 0
-18.8487 -1.48432 0
7.70551 8.728 0
7.59057 7.79818 0
8.67126 8.58884 0
8.51966 7.61618 0
8.67126 8.58884 0
8.51966 7.61618 0
9.63701 8.44968 0
9.44874 7.43417 0
8.82287 9.5615 0
8.67126 8.58884 0
9.82529 9.46519 0
9.63701 8.44968 0
7.82045 9.65782 0
7.70551 8.728 0
8.82287 9.5615 0
8.67126 8.58884 0
-10.568 -12.3587 0
-9.4299 -11.7943 0
-10.7215 -11.1987 0
-9.73225 -10.7819 0
-9.4299 -11.7943 0
-8.29184 -11.2298 0
-9.73225 -10.7819 0
-8.743 -10.3652 0
-9.73225 -10.7819 0
-8.743 -10.3652 0
-10.0346 -9.76962 0
-9.19415 -9.50053 0
-10.7215 -11.1987 0
-9.73225 -10.7819 0
-10.875 -10.0387 0
-10.0346 -9.76962 0
-1.37928 6.41519 0
-1.41153 5.85629 0
-0.816985 6.36708 0
-0.864036 5.82564 0
-1.94158 6.46329 0
-1.95902 5.88694 0
-1.37928 6.41519 0
-1.41153 5.85629 0
-7.61898 3.13513 0
-8.28961 2.89062 0
-7.34759 2.44289 0
-8.02811 2.21262 0
-7.89037 3.82736 0
-8.55111 3.56863 0
-7.61898 3.13513 0
-8.28961 2.89062 0
-8.55111 3.56863 0
-9.21186 3.3099 0
-8.28961 2.89062 0
-8.96025 2.64612 0
-8.28961 2.89062 0
-8.96025 2.64612 0
-8.02811 2.21262 0
-8.70863 1.98234 0
-7.20333 10.0045 0
-7.0992 9.08754 0
-6.2949 10.1203 0
-6.23338 9.22602 0
-7.30747 10.9215 0
-7.20333 10.0045 0
-6.35641 11.0145 0
-6.2949 10.1203 0
-8.25854 10.8286 0
-8.11177 9.88881 0
-7.30747 10.9215 0
-7.20333 10.0045 0
-8.11177 9.88881 0
-7.96501 8.94905 0
-7.20333 10.0045 0
-7.0992 9.08754 0
-14.6711 21.6404 0
-15.2613 22.6809 0
-15.5606 21.4736 0
-16.4726 22.3439 0
-13.7815 21.8072 0
-14.05 23.0178 0
-14.6711 21.6404 0
-15.2613 22.6809 0
-14.05 23.0178 0
-14.3185 24.2284 0
-15.2613 22.6809 0
-15.8515 23.7213 0
-15.2613 22.6809 0
-15.8515 23.7213 0
-16.4726 22.3439 0
-17.3845 23.2142 0
8.28025 -8.22933 0
8.11022 -9.03048 0
9.44436 -8.40409 0
9.10413 -9.53967 0
8.11022 -9.03048 0
7.94019 -9.83163 0
9.10413 -9.53967 0
8.76391 -10.6752 0
-4.56496 10.1878 0
-4.58372 9.33457 0
-3.73484 10.1441 0
-3.79358 9.30869 0
-3.73484 10.1441 0
-3.79358 9.30869 0
-2.90472 10.1003 0
-3.00344 9.28282 0
-3.6761 10.9795 0
-3.73484 10.1441 0
-2.806 10.9179 0
-2.90472 10.1003 0
-4.5462 11.0411 0
-4.56496 10.1878 0
-3.6761 10.9795 0
-3.73484 10.1441 0
-5.97918 -10.8953 0
-6.79883 -11.5721 0
-5.35887 -11.6103 0
-6.15199 -12.4391 0
-6.59949 -10.1802 0
-7.44567 -10.705 0
-5.97918 -10.8953 0
-6.79883 -11.5721 0
-7.44567 -10.705 0
-8.29184 -11.2298 0
-6.79883 -11.5721 0
-7.61848 -12.2489 0
-6.79883 -11.5721 0
-7.61848 -12.2489 0
-6.15199 -12.4391 0
-6.94512 -13.2679 0
-8.48226 -7.08832 0
-9.24225 -7.51075 0
-8.04764 -7.86663 0
-8.82292 -8.29174 0
-9.24225 -7.51075 0
-10.0023 -7.93318 0
-8.82292 -8.29174 0
-9.5982 -8.71686 0
-8.82292 -8.29174 0
-9.5982 -8.71686 0
-8.40358 -9.07273 0
-9.19415 -9.50053 0
-8.04764 -7.86663 0
-8.82292 -8.29174 0
-7.61302 -8.64493 0
-8.40358 -9.07273 0
-9.58421 -4.03208 0
-9.97545 -4.56766 0
-9.10178 -4.58193 0
-9.30992 -5.23763 0
-9.19297 -3.49651 0
-9.58421 -4.03208 0
-8.89364 -3.92624 0
-9.10178 -4.58193 0
-9.4923 -3.06677 0
-10.0666 -3.48223 0
-9.19297 -3.49651 0
-9.58421 -4.03208 0
-10.0666 -3.48223 0
-10.641 -3.89769 0
-9.58421 -4.03208 0
-9.97545 -4.56766 0
11.2983 12.8406 0
11.2328 11.5826 0
12.555 12.8024 0
12.4343 11.4913 0
11.3638 14.0985 0
11.2983 12.8406 0
12.6757 14.1136 0
12.555 12.8024 0
10.0518 14.0835 0
10.0415 12.8787 0
11.3638 14.0985 0
11.2983 12.8406 0
10.0415 12.8787 0
10.0312 11.6739 0
11.2983 12.8406 0
11.2328 11.5826 0
-9.07336 9.68327 0
-10.035 9.47773 0
-8.88296 8.71205 0
-9.80091 8.47506 0
-8.11177 9.88881 0
-9.07336 9.68327 0
-7.96501 8.94905 0
-8.88296 8.71205 0
-8.25854 10.8286 0
-9.26377 10.6545 0
-8.11177 9.88881 0
-9.07336 9.68327 0
-9.26377 10.6545 0
-10.269 10.4804 0
-9.07336 9.68327 0
-10.035 9.47773 0
-9.60428 13.876 0
-10.7175 13.7771 0
-9.51985 12.7576 0
-10.5969 12.6388 0
-8.49104 13.9749 0
-9.60428 13.876 0
-8.44276 12.8764 0
-9.51985 12.7576 0
-8.53932 15.0734 0
-9.68871 14.9943 0
-8.49104 13.9749 0
-9.60428 13.876 0
-9.68871 14.9943 0
-10.8381 14.9153 0
-9.60428 13.876 0
-10.7175 13.7771 0
20.5611 -10.7632 0
18.8151 -10.6841 0
20.6899 -12.5014 0
19.0629 -12.4858 0
22.307 -10.8422 0
20.5611 -10.7632 0
22.3168 -12.517 0
20.6899 -12.5014 0
22.2972 -9.16748 0
20.4322 -9.02499 0
22.307 -10.8422 0
20.5611 -10.7632 0
20.4322 -9.02499 0
18.5673 -8.88249 0
20.5611 -10.7632 0
18.8151 -10.6841 0
-10.8381 14.9153 0
-12.0332 14.79 0
-10.7175 13.7771 0
-11.8755 13.6159 0
-12.0332 14.79 0
-13.2284 14.6646 0
-11.8755 13.6159 0
-13.0336 13.4547 0
-11.8755 13.6159 0
-13.0336 13.4547 0
-11.7178 12.4418 0
-12.8387 12.2448 0
-10.7175 13.7771 0
-11.8755 13.6159 0
-10.5969 12.6388 0
-11.7178 12.4418 0
-15.0103 -4.98849 0
-15.3218 -3.97057 0
-15.9821 -5.23798 0
-16.281 -4.13402 0
-14.6987 -6.00641 0
-15.0103 -4.98849 0
-15.6831 -6.34194 0
-15.9821 -5.23798 0
-13.7144 -5.67089 0
-14.0385 -4.739 0
-14.6987 -6.00641 0
-15.0103 -4.98849 0
-14.0385 -4.739 0
-14.3626 -3.80711 0
-15.0103 -4.98849 0
-15.3218 -3.97057 0
27.3443 -9.1889 0
27.3946 -10.9153 0
29.0519 -9.17042 0
29.1189 -10.9166 0
25.6368 -9.20737 0
25.6703 -10.9139 0
27.3443 -9.1889 0
27.3946 -10.9153 0
25.6703 -10.9139 0
25.7038 -12.6205 0
27.3946 -10.9153 0
27.4448 -12.6416 0
27.3946 -10.9153 0
27.4448 -12.6416 0
29.1189 -10.9166 0
29.1858 -12.6628 0
7.59516 13.8304 0
7.71625 12.7364 0
8.82348 13.9569 0
8.87888 12.8076 0
7.71625 12.7364 0
7.83734 11.6424 0
8.87888 12.8076 0
8.93428 11.6582 0
8.87888 12.8076 0
8.93428 11.6582 0
10.0415 12.8787 0
10.0312 11.6739 0
8.82348 13.9569 0
8.87888 12.8076 0
10.0518 14.0835 0
10.0415 12.8787 0
-14.4749 -2.95065 0
-13.7888 -2.82965 0
-14.5871 -2.09419 0
-13.9761 -2.12043 0
-14.3626 -3.80711 0
[...]
POINT_DATA 46724
SCALARS solution_0 double 1
LOOKUP_TABLE default
1.00102 1.00123 1.00136 1.00162 1.00077 1.00102 1.00105 1.00136 1.00058 1.00078 1.00077 1.00102 1.00078 1.00094 1.00102 1.00123 0.999489 0.998743 0.999633 0.998937 0.999447 0.999489 0.99954 0.999633 0.999368 0.999366 0.999447 0.999489 0.999366 0.998572 0.999489 0.998743 1.00034 1.00073 0.999594 0.999716 1.00007 1.00034 0.999537 0.999594 1.00056 1.00101 1.00007 1.00034 1.00101 1.00159 1.00034 1.00073 1.00881 1.00595 1.00727 1.00412 1.01213 1.00881 1.01097 1.00727 1.01287 1.00988 1.01213 1.00881 1.00988 1.00727 1.00881 1.00595 1.02715 1.02984 1.02796 1.03059 1.02491 1.02715 1.02574 1.02796 1.02378 1.02591 1.02491 1.02715 1.02591 1.02854 1.02715 1.02984 0.99853 0.998577 0.997394 0.997815 0.999457 0.999261 0.99853 0.998577 0.999261 0.999142 0.998577 0.998678 0.998577 0.998678 0.997815 0.998206 0.989543 0.990785 0.991884 0.992837 0.991884 0.992837 0.9943 0.994974 0.990834 0.991884 0.993621 0.9943 0.988154 0.989543 0.990834 0.991884 1.00826 1.00938 1.00861 1.00954 1.00938 1.01059 1.00954 1.01057 1.00954 1.01057 1.00959 1.01051 1.00861 1.00954 1.0088 1.00959 0.994264 0.994985 0.993232 0.994078 0.994985 0.99568 0.994078 0.994891 0.994078 0.994891 0.993303 0.994215 0.993232 0.994078 0.992335 0.993303 0.994794 0.995606 0.995099 0.995855 0.99461 0.995468 0.994794 0.995606 0.995468 0.996201 0.995606 0.996313 0.995606 0.996313 0.995855 0.99652 1.00012 1 0.999655 0.999485 0.999862 0.999788 1.00012 1 0.999788 0.999708 1 0.999882 1 0.999882 0.999485 0.999305 0.99887 0.99853 0.997696 0.997394 0.999434 0.99887 0.998301 0.997696 1.00033 0.999805 0.999434 0.99887 0.999805 0.999457 0.99887 0.99853 1.01211 1.01246 1.01222 1.01256 1.01185 1.01211 1.01197 1.01222 1.01174 1.01201 1.01185 1.01211 1.01201 1.01237 1.01211 1.01246 0.996313 0.996958 0.99652 0.997228 0.996201 0.996726 0.996313 0.996958 0.996726 0.997158 0.996958 0.99749 0.996958 0.99749 0.997228 0.997839 1.02719 1.02924 1.02627 1.02806 1.02627 1.02806 1.02521 1.02668 1.02464 1.02627 1.02379 1.02521 1.02534 1.02719 1.02464 1.02627 1.00159 1.00183 1.00073 1.00085 1.00183 1.00219 1.00085 1.00103 1.00085 1.00103 0.999736 0.999797 1.00073 1.00085 0.999716 0.999736 1.01481 1.01413 1.01902 1.01903 1.01097 1.00969 1.01481 1.01413 0.984931 0.985921 0.981928 0.983578 0.987611 0.98812 0.984931 0.985921 0.98812 0.988807 0.985921 0.987028 0.985921 0.987028 0.983578 0.985199 1.00196 1.00082 1.0032 1.00211 1.00283 1.00196 1.00402 1.0032 1.00186 1.00097 1.00283 1.00196 1.00097 0.999827 1.00196 1.00082 1.0022 1.00206 1.00191 1.00169 1.00252 1.00249 1.0022 1.00206 1.00249 1.00244 1.00206 1.00192 1.00206 1.00192 1.00169 1.0015 1.02736 1.02619 1.02551 1.02441 1.02619 1.02496 1.02441 1.02306 1.00616 1.00523 1.00789 1.00708 1.00789 1.00708 1.00987 1.00923 1.00844 1.00789 1.01027 1.00987 1.00682 1.00616 1.00844 1.00789 1.00441 1.00394 1.00583 1.00525 1.00286 1.00247 1.00441 1.00394 1.00247 1.00219 1.00394 1.00356 1.00394 1.00356 1.00525 1.00479 0.996297 0.996974 0.997955 0.998328 0.996974 0.997541 0.998328 0.998664 0.998328 0.998664 0.999695 0.999797 0.997955 0.998328 0.999618 0.999695 0.990734 0.992166 0.991237 0.992777 0.989112 0.990734 0.989519 0.991237 0.988888 0.990537 0.989112 0.990734 0.990537 0.991941 0.990734 0.992166 1.01951 1.02061 1.01903 1.02 1.01847 1.01951 1.0181 1.01903 1.01878 1.01993 1.01847 1.01951 1.01993 1.02117 1.01951 1.02061 1.00009 0.999434 0.998936 0.998301 1.00097 1.00009 0.999827 0.998936 1.00186 1.00099 1.00097 1.00009 1.00099 1.00033 1.00009 0.999434 1.00293 1.00225 1.00242 1.00174 1.00375 1.00293 1.00325 1.00242 1.00412 1.00332 1.00375 1.00293 1.00332 1.00264 1.00293 1.00225 1.01666 1.01724 1.01627 1.01672 1.0162 1.01666 1.01589 1.01627 1.0164 1.01692 1.0162 1.01666 1.01692 1.01762 1.01666 1.01724 1.00264 1.00204 1.00225 1.00165 1.00204 1.00155 1.00165 1.00118 1.00165 1.00118 1.00114 1.00069 1.00225 1.00165 1.00174 1.00114 0.996639 0.996356 0.997252 0.99699 0.99703 0.996639 0.997613 0.997252 0.996324 0.995905 0.99703 0.996639 0.995905 0.995606 0.996639 0.996356 1.01554 1.01531 1.01535 1.01511 1.01577 1.01555 1.01554 1.01531 1.01555 1.01526 1.01531 1.01502 1.01531 1.01502 1.01511 1.01482 1.01928 1.02063 1.0191 1.02034 1.02063 1.02212 1.02034 1.02171 1.02034 1.02171 1.01993 1.02117 1.0191 1.02034 1.01878 1.01993 0.995303 0.994623 0.995099 0.994518 0.995606 0.994821 0.995303 0.994623 0.994821 0.993919 0.994623 0.993862 0.994623 0.993862 0.994518 0.993883 0.987422 0.988943 0.989543 0.990785 0.985681 0.987422 0.988154 0.989543 0.983462 0.985512 0.985681 0.987422 0.985512 0.987251 0.987422 0.988943 1.0018 1.00242 1.00113 1.00174 1.00099 1.0018 1.00033 1.00113 1.00186 1.00266 1.00099 1.0018 1.00266 1.00325 1.0018 1.00242 1.01852 1.02012 1.01822 1.01998 1.01822 1.01998 1.01785 1.01963 1.01672 1.01822 1.01625 1.01785 1.01717 1.01852 1.01672 1.01822 1.01457 1.01422 1.01434 1.01399 1.01422 1.01388 1.01399 1.01366 1.01399 1.01366 1.01379 1.01345 1.01434 1.01399 1.01414 1.01379 0.988507 0.98517 0.989834 0.987249 1.00128 0.999618 1.00112 0.999695 1.00112 0.999695 1.00103 0.999797 1.00247 1.00112 1.00219 1.00103 1.00286 1.00128 1.00247 1.00112 1.01047 1.01023 1.01118 1.01091 1.01083 1.01047 1.0116 1.01118 1.00997 1.00968 1.01083 1.01047 1.00968 1.00948 1.01047 1.01023 1.01318 1.01281 1.01274 1.01243 1.01386 1.01339 1.01318 1.01281 1.01339 1.01279 1.01281 1.01233 1.01281 1.01233 1.01243 1.01202 1.02365 1.02312 1.02212 1.02171 1.02534 1.02464 1.02365 1.02312 1.02464 1.02379 1.02312 1.02244 1.02312 1.02244 1.02171 1.02117 0.993602 0.994026 0.992437 0.993165 0.99461 0.994794 0.993602 0.994026 0.994794 0.995099 0.994026 0.994518 0.994026 0.994518 0.993165 0.993883 1.0224 1.02195 1.02545 1.02441 1.02002 1.01987 1.0224 1.02195 1.01987 1.01921 1.02195 1.02109 1.02195 1.02109 1.02441 1.0231 1.01241 1.0131 1.01316 1.01407 1.0131 1.01391 1.01407 1.01516 1.01407 1.01516 1.01488 1.01625 1.01316 1.01407 1.01378 1.01488 0.978755 0.982256 0.980837 0.983681 0.982256 0.985062 0.983681 0.985982 0.983681 0.985982 0.985512 0.987251 0.980837 0.983681 0.983462 0.985512 1.00332 1.00362 1.00264 1.00295 1.00412 1.00439 1.00332 1.00362 1.00439 1.00457 1.00362 1.00383 1.00362 1.00383 1.00295 1.00317 0.997768 0.998071 0.997427 0.998079 1.01443 1.01226 1.01435 1.012 1.01226 1.01027 1.012 1.00987 1.012 1.00987 1.01151 1.00923 1.01435 1.012 1.01407 1.01151 1.01173 1.01392 1.00991 1.01155 1.01315 1.01566 1.01173 1.01392 0.998303 0.998624 0.997848 0.998248 0.998769 0.99901 0.998303 0.998624 0.99901 0.99924 0.998624 0.998922 0.998624 0.998922 0.998248 0.998612 0.994402 0.994264 0.993327 0.993315 0.993327 0.993315 0.992051 0.99219 0.99354 0.993327 0.992021 0.992051 0.994823 0.994402 0.99354 0.993327 1.00372 1.004 1.0046 1.00488 1.004 1.00418 1.00488 1.00506 1.00488 1.00506 1.00587 1.00604 1.0046 1.00488 1.00561 1.00587 1.01342 1.01311 1.01338 1.01311 1.01384 1.01342 1.01375 1.01338 1.01389 1.01341 1.01384 1.01342 1.01341 1.01307 1.01342 1.01311 1.00508 1.00769 1.006 1.00901 1.00769 1.00991 1.00901 1.01155 1.00633 1.00635 1.00733 1.00753 1.00733 1.00753 1.00837 1.0088 1.00713 1.00733 1.00799 1.00837 1.00628 1.00633 1.00713 1.00733 1.01429 1.01396 1.0138 1.01331 1.0138 1.01331 1.01339 1.01279 1.01419 1.0138 1.01386 1.01339 1.01457 1.01429 1.01419 1.0138 0.993303 0.994215 0.992449 0.993325 0.992449 0.993325 0.991547 0.992348 0.991461 0.992449 0.990667 0.991547 0.992335 0.993303 0.991461 0.992449 0.991966 0.992437 0.992957 0.993165 0.992957 0.993165 0.993862 0.993883 0.992893 0.992957 0.993919 0.993862 0.991706 0.991966 0.992893 0.992957 1.02796 1.03059 1.02833 1.03096 1.02833 1.03096 1.02831 1.03079 1.02611 1.02833 1.02617 1.02831 1.02574 1.02796 1.02611 1.02833 0.995589 0.997096 0.995083 0.996543 0.997096 0.998301 0.996543 0.997696 0.996543 0.997696 0.996271 0.997394 0.995083 0.996543 0.994823 0.996271 1.00912 1.00777 1.00933 1.00807 1.00933 1.00807 1.00942 1.00825 1.01075 1.00933 1.01069 1.00942 1.01069 1.00912 1.01075 1.00933 1.0093 1.00837 1.00983 1.0088 1.01016 1.0093 1.01075 1.00983 1.00965 1.00884 1.01016 1.0093 1.00884 1.00799 1.0093 1.00837 0.999993 1.00032 1.00005 1.0004 1.00032 0.999955 1.0004 1.00008 1.0004 1.00008 1.00048 1.00019 1.00005 1.0004 1.0001 1.00048 0.999366 0.999175 0.998572 0.998371 0.999368 0.999234 0.999366 0.999175 0.999234 0.999178 0.999175 0.998978 0.999175 0.998978 0.998371 0.998258 1.0151 1.01539 1.01468 1.01493 1.01539 1.01572 1.01493 1.01519 1.01493 1.01519 1.01448 1.01468 1.01468 1.01493 1.01428 1.01448 1.01817 1.0176 1.01772 1.01725 1.00184 1.00146 1.00189 1.0015 1.00189 1.0015 1.00192 1.0015 1.00239 1.00189 1.00244 1.00192 1.00233 1.00184 1.00239 1.00189 1.00508 1.006 1.00239 1.00291 1.00239 1.00291 0.999459 0.999536 1.02465 1.02321 1.02244 1.02138 1.02244 1.02138 1.02065 1.01985 1.02314 1.02244 1.02109 1.02065 1.00048 1.00032 1.00096 1.00071 1.00096 1.00071 1.00142 1.00105 1.00128 1.00096 1.00191 1.00142 1.00069 1.00048 1.00128 1.00096 1.01309 1.01339 1.01297 1.01326 1.01286 1.01309 1.01274 1.01297 1.01297 1.01321 1.01286 1.01309 1.01321 1.01351 1.01309 1.01339 1.00011 1.00005 1.00013 1.0001 1.00003 1.00011 1.00004 1.00013 1.00001 1.00008 1.00003 1.00011 1.00008 0.999993 1.00011 1.00005 1.00375 1.00325 1.00466 1.00417 1.00466 1.00417 1.00572 1.00527 1.00501 1.00466 1.00603 1.00572 1.00412 1.00375 1.00501 1.00466 1.01717 1.0176 1.01772 1.01824 1.01658 1.01694 1.01717 1.0176 1.01694 1.01731 1.0176 1.01805 1.0176 1.01805 1.01824 1.0188 0.999213 0.999813 0.999413 0.999944 0.999008 0.999684 0.999213 0.999813 0.999684 0.999567 0.999813 0.999654 0.999813 0.999654 0.999944 0.999737 1.0155 1.01585 1.01621 1.01656 1.01621 1.01656 1.01694 1.01731 1.01586 1.01621 1.01658 1.01694 1.01517 1.0155 1.01586 1.01621 1.02143 1.02292 1.0211 1.02272 1.01998 1.02143 1.01963 1.0211 1.02012 1.02157 1.01998 1.02143 1.02157 1.02298 1.02143 1.02292 0.963628 0.964116 0.967755 0.968843 0.967755 0.968843 0.971367 0.972737 0.96743 0.967755 0.970563 0.971367 0.963882 0.963628 0.96743 0.967755 1.03015 1.03254 1.03273 1.03566 1.03254 1.03542 1.03566 1.03926 1.03566 1.03926 1.0382 1.04243 1.03273 1.03566 1.03475 1.0382 1.01104 1.00965 1.01043 1.00931 1.00965 1.00831 1.00931 1.00818 1.00931 1.00818 1.00904 1.00807 1.01043 1.00931 1.00997 1.00904 0.992335 0.991461 0.991444 0.990409 0.991461 0.990667 0.990409 0.989464 0.990409 0.989464 0.989272 0.988129 0.991444 0.990409 0.990485 0.989272 1.00049 1.00077 1.00071 1.00105 1.00018 1.00049 1.00032 1.00071 1.00012 1.00037 1.00018 1.00049 1.00037 1.00058 1.00049 1.00077 1.01751 1.01888 1.01852 1.02012 1.01634 1.01751 1.01717 1.01852 1.01544 1.01631 1.01634 1.01751 1.01631 1.01728 1.01751 1.01888 1.01446 1.01433 1.01511 1.0149 1.01389 1.01384 1.01446 1.01433 1.01384 1.01375 1.01433 1.01418 1.01433 1.01418 1.0149 1.01468 1.01171 1.01241 1.01239 1.01316 1.01239 1.01316 1.01297 1.01378 1.01174 1.01239 1.01229 1.01297 1.01111 1.01171 1.01174 1.01239 1.01286 1.01297 1.01337 1.01347 1.0124 1.01251 1.01286 1.01297 1.01251 1.01263 1.01297 1.01308 1.01297 1.01308 1.01347 1.01358 1.01424 1.01378 1.01531 1.01488 1.01531 1.01488 1.0166 1.01625 1.01554 1.01531 1.01669 1.0166 1.01456 1.01424 1.01554 1.01531 1.02574 1.02611 1.02427 1.0244 1.02611 1.02617 1.0244 1.02435 1.0244 1.02435 1.02292 1.02272 1.02427 1.0244 1.02298 1.02292 1.00142 1.00105 1.00181 1.00136 1.00181 1.00136 1.0021 1.00162 1.00237 1.00181 1.00268 1.0021 1.00191 1.00142 1.00237 1.00181 1.02414 1.0222 1.02582 1.02377 1.0222 1.02055 1.02377 1.02206 1.02377 1.02206 1.02494 1.02321 1.02582 1.02377 1.02699 1.02494 0.999882 0.999756 0.999305 0.999118 0.999708 0.999625 0.999882 0.999756 0.999625 0.99954 0.999756 0.999633 0.999756 0.999633 0.999118 0.998937 0.996564 0.999459 0.996195 0.999536 0.993621 0.996564 0.992804 0.996195 1.00412 1.00501 1.00439 1.00526 1.00501 1.00603 1.00526 1.00623 1.00526 1.00623 1.00541 1.00635 1.00439 1.00526 1.00457 1.00541 0.999752 0.999399 0.999704 0.999264 0.999704 0.999264 0.999653 0.999178 0.999849 0.999704 0.999841 0.999653 0.999866 0.999752 0.999849 0.999704 1.03015 1.0276 1.02763 1.02591 1.0276 1.02545 1.02591 1.02441 1.02591 1.02441 1.02393 1.0231 1.02763 1.02591 1.02484 1.02393 1.00002 0.999889 0.999975 0.999817 0.999975 0.999817 0.999933 0.999737 0.999967 0.999975 0.999948 0.999933 0.999985 1.00002 0.999967 0.999975 1.0099 1.01058 1.00948 1.01014 1.00917 1.0099 1.00876 1.00948 1.00965 1.01041 1.00917 1.0099 1.01041 1.01111 1.0099 1.01058 0.993621 0.9943 0.996564 0.996859 0.9943 0.994974 0.996859 0.997221 0.996859 0.997221 0.999392 0.999449 0.996564 0.996859 0.999459 0.999392 0.994466 0.994029 0.992434 0.992133 0.995244 0.994466 0.993097 0.992434 0.996972 0.996123 0.995244 0.994466 0.996123 0.995589 0.994466 0.994029 1.01225 1.0116 1.01181 1.01118 1.01181 1.01118 1.01151 1.01091 1.01233 1.01181 1.01202 1.01151 1.01279 1.01225 1.01233 1.01181 1.01386 1.01318 1.01392 1.01334 1.01318 1.01274 1.01334 1.01295 1.01334 1.01295 1.01341 1.01307 1.01392 1.01334 1.01389 1.01341 1.02994 1.02823 1.02806 1.02668 1.01949 1.0188 1.02022 1.0194 1.02022 1.0194 1.02097 1.02 1.02102 1.02022 1.02195 1.02097 1.02013 1.01949 1.02102 1.02022 1.03102 1.02817 1.03191 1.02924 1.02942 1.02649 1.03102 1.02817 1.02649 1.02414 1.02817 1.02582 1.02817 1.02582 1.02924 1.02699 1.01538 1.01581 1.01524 1.01561 1.01493 1.01538 1.01482 1.01524 1.01506 1.01555 1.01493 1.01538 1.01555 1.01603 1.01538 1.01581 1.01571 1.0163 1.01555 1.01603 1.01513 1.01571 1.01506 1.01555 1.01517 1.01586 1.01513 1.01571 1.01586 1.01658 1.01571 1.0163 1.0179 1.01928 1.01784 1.0191 1.01784 1.0191 1.01765 1.01878 1.01672 1.01784 1.01664 1.01765 1.01669 1.0179 1.01672 1.01784 1.01261 1.01274 1.01294 1.01305 1.0125 1.01261 1.01285 1.01294 1.01224 1.01236 1.0125 1.01261 1.01236 1.01249 1.01261 1.01274 1.03402 1.03128 1.03276 1.03027 1.03493 1.03204 1.03402 1.03128 1.01164 1.01023 1.01039 1.00903 1.01315 1.01173 1.01164 1.01023 1.01173 1.00991 1.01023 1.00851 1.01023 1.00851 1.00903 1.00743 1.01603 1.01646 1.01581 1.01618 0.990151 0.990486 0.98812 0.988807 0.990047 0.990151 0.987611 0.98812 0.992133 0.991956 0.990047 0.990151 0.991956 0.992021 0.990151 0.990486 0.99699 0.996707 0.997605 0.997358 0.996707 0.99652 0.997358 0.997228 0.997358 0.997228 0.997957 0.997839 0.997605 0.997358 0.998126 0.997957 1.01483 1.01452 1.01474 1.01444 1.01483 1.01568 1.01486 1.01564 1.01568 1.01664 1.01564 1.01652 1.01564 1.01652 1.01554 1.01633 1.01486 1.01564 1.01482 1.01554 1.01358 1.01462 1.01298 1.01391 1.01246 1.01358 1.01196 1.01298 1.01301 1.01426 1.01246 1.01358 1.01426 1.01544 1.01358 1.01462 1.01406 1.01483 1.01415 1.01486 1.01415 1.01486 1.01417 1.01482 1.01354 1.01415 1.01361 1.01417 1.01339 1.01406 1.01354 1.01415 1.01435 1.01407 1.017 1.0165 1.01443 1.01435 1.01714 1.017 1.01347 1.01358 1.01399 1.01408 1.01399 1.01408 1.01447 1.01455 1.0139 1.01399 1.01441 1.01447 1.01337 1.01347 1.0139 1.01399 1.00983 1.0088 1.01049 1.00959 1.01049 1.00959 1.01125 1.01051 1.01132 1.01049 1.01196 1.01125 1.01075 1.00983 1.01132 1.01049 1.0353 1.0351 1.0322 1.03191 1.03493 1.0353 1.03204 1.0322 1.00723 1.00622 1.00719 1.00624 1.00719 1.00624 1.00714 1.00623 1.00818 1.00719 1.00807 1.00714 1.00831 1.00723 1.00818 1.00719 1.00338 1.00358 1.00418 1.00436 1.00268 1.00289 1.00338 1.00358 1.00289 1.00305 1.00358 1.00372 1.00358 1.00372 1.00436 1.00447 1.01041 1.01097 1.01111 1.01171 1.00965 1.01016 1.01041 1.01097 1.01016 1.01075 1.01097 1.01162 1.01097 1.01162 1.01171 1.01241 1.00141 1.00165 0.999505 0.999449 1.00128 1.00141 0.999618 0.999505 1.00286 1.00321 1.00128 1.00141 1.00321 1.00371 1.00141 1.00165 1.00508 1.00427 1.00769 1.00653 1.00427 1.00371 1.00653 1.00568 1.00653 1.00568 1.00851 1.00743 1.00769 1.00653 1.00991 1.00851 1.00968 1.00882 1.00948 1.00868 1.00997 1.00904 1.00968 1.00882 1.00904 1.00807 1.00882 1.00793 1.00882 1.00793 1.00868 1.00785 0.995905 0.995078 0.995606 0.994821 0.996324 0.995484 0.995905 0.995078 0.995484 0.994474 0.995078 0.994104 0.995078 0.994104 0.994821 0.993919 0.998685 0.99884 0.999537 0.999521 0.997728 0.998132 0.998685 0.99884 0.998132 0.998487 0.99884 0.999005 0.99884 0.999005 0.999521 0.999534 0.999737 0.999368 0.99978 0.999447 0.99978 0.999447 0.999831 0.99954 0.999881 0.99978 0.999904 0.999831 0.999862 0.999737 0.999881 0.99978 1.00064 1.00069 1.00119 1.00128 1.00119 1.00128 1.00182 1.00191 1.00101 1.00119 1.00159 1.00182 1.00056 1.00064 1.00101 1.00119 0.978757 0.981526 0.982369 0.984663 0.975793 0.978831 0.978757 0.981526 0.989422 0.987858 0.989977 0.988588 0.987858 0.986064 0.988588 0.987013 0.988588 0.987013 0.989464 0.988129 0.989977 0.988588 0.990667 0.989464 1.02319 1.02396 1.02742 1.02897 1.01902 1.01903 1.02319 1.02396 0.998732 0.999184 0.998766 0.999165 0.999184 0.999565 0.999165 0.999522 0.999165 0.999522 0.999231 0.999538 0.998766 0.999165 0.998904 0.999231 1.00844 1.01027 1.00887 1.01053 1.00887 1.01053 1.00912 1.01063 1.00738 1.00887 1.00774 1.00912 1.00682 1.00844 1.00738 1.00887 1.00471 1.00468 1.00409 1.00407 1.00409 1.00407 1.0035 1.00348 1.0041 1.00409 1.00351 1.0035 1.00473 1.00471 1.0041 1.00409 1.01308 1.01321 1.01358 1.01373 1.01263 1.01273 1.01308 1.01321 1.01273 1.01285 1.01321 1.01335 1.01321 1.01335 1.01373 1.01391 1.03273 1.03475 1.02972 1.03132 1.02972 1.03132 1.02725 1.02854 1.0276 1.02972 1.02545 1.02725 1.03015 1.03273 1.0276 1.02972 1.01075 1.01069 1.01191 1.0116 1.01191 1.0116 1.01305 1.01255 1.01219 1.01191 1.01359 1.01305 1.01069 1.01075 1.01219 1.01191 1.00007 1.00007 1.0002 1.0002 1.0002 1.0002 1.00022 1.00023 1.00019 1.0002 1.00021 1.00022 1.00007 1.00007 1.00019 1.0002 1.00402 1.00531 1.00475 1.00597 1.00531 1.00682 1.00597 1.00738 1.00597 1.00738 1.00643 1.00774 1.00475 1.00597 1.00527 1.00643 1.01075 1.01132 1.01162 1.01225 1.01132 1.01196 1.01225 1.01298 1.01225 1.01298 1.0131 1.01391 1.01162 1.01225 1.01241 1.0131 1.01069 1.01219 1.01163 1.01307 1.01219 1.01359 1.01307 1.0144 1.01307 1.0144 1.01414 1.01532 1.01163 1.01307 1.01282 1.01414 1.01492 1.01563 1.01631 1.01728 1.01426 1.01492 1.01544 1.01631 1.01301 1.01345 1.01426 1.01492 1.01345 1.0139 1.01492 1.01563 1.01359 1.01379 1.01326 1.01345 1.01342 1.01359 1.01307 1.01326 1.0138 1.01396 1.01342 1.01359 1.01396 1.01414 1.01359 1.01379 1.00017 1.0006 1.0002 1.00064 1.0006 1.00037 1.00064 1.00043 1.00064 1.00043 1.00067 1.00048 1.0002 1.00064 1.00022 1.00067 1.00539 1.00539 1.00623 1.0062 1.0046 1.00462 1.00539 1.00539 1.00462 1.00464 1.00539 1.0054 1.00539 1.0054 1.0062 1.00618 0.999886 0.999794 0.999866 0.999752 0.999907 0.999843 0.999886 0.999794 0.999843 0.999567 0.999794 0.999481 0.999794 0.999481 0.999752 0.999399 1.01104 1.01206 1.01215 1.01303 1.01206 1.01286 1.01303 1.0137 1.01303 1.0137 1.01419 1.01471 1.01215 1.01303 1.01348 1.01419 1.00017 1.00017 1.00019 1.0002 1.00019 1.0002 1.0002 1.00022 1.00006 1.00019 1.00007 1.0002 1.00006 1.00017 1.00006 1.00019 1.01577 1.01893 1.01627 1.01917 1.01627 1.01917 1.0165 1.01921 1.01363 1.01627 1.01407 1.0165 1.01287 1.01577 1.01363 1.01627 1.00239 0.999459 1.00193 0.999392 1.00193 0.999392 1.00165 0.999449 1.00427 1.00193 1.00371 1.00165 1.00508 1.00239 1.00427 1.00193 1.01656 1.01688 1.01731 1.01771 1.01585 1.01611 1.01656 1.01688 1.01611 1.01633 1.01688 1.01718 1.01688 1.01718 1.01771 1.0181 0.982256 0.982017 0.985062 0.984713 0.978703 0.979487 0.982017 0.982383 0.982017 0.982383 0.984713 0.984807 1.00107 0.998903 1.00326 1.00121 1.00326 1.00121 1.00595 1.00412 1.00477 1.00326 1.00727 1.00595 1.0027 1.00107 1.00477 1.00326 1.01896 1.01773 1.02055 1.01907 1.01716 1.01619 1.01896 1.01773 1.01619 1.01532 1.01773 1.01666 1.01773 1.01666 1.01907 1.01781 0.997693 0.998936 0.997096 0.998301 0.996123 0.997693 0.995589 0.997096 0.996972 0.998573 0.996123 0.997693 0.998573 0.999827 0.997693 0.998936 1.00321 1.00496 1.00371 1.00568 1.00286 1.00441 1.00321 1.00496 1.00441 1.00583 1.00496 1.00653 1.00496 1.00653 1.00568 1.00743 0.998311 0.997839 0.998516 0.998091 0.998516 0.998091 0.998978 0.998258 1.00291 1.00243 1.00278 1.0023 1.00278 1.0023 1.00261 1.00212 1.00333 1.00278 1.00317 1.00261 1.00344 1.00291 1.00333 1.00278 1.01771 1.01715 1.01846 1.