# vtk DataFile Version 3.0
#This file was generated by the deal.II library on 2020/11/21 at 20:43:46
ASCII
DATASET UNSTRUCTURED_GRID

POINTS 23552 double
-17.065 -16.8876 0
-16.9513 -18.2883 0
-15.6121 -16.861 0
-15.464 -18.2609 0
-17.1788 -15.487 0
-17.065 -16.8876 0
-15.7602 -15.4612 0
-15.6121 -16.861 0
-18.5973 -15.5128 0
-18.518 -16.9143 0
-17.1788 -15.487 0
-17.065 -16.8876 0
-18.518 -16.9143 0
-18.4386 -18.3157 0
-17.065 -16.8876 0
-16.9513 -18.2883 0
-22.54 4.69438 0
-21.1507 4.81763 0
-22.6967 6.12252 0
-21.3129 6.18082 0
-23.9293 4.57113 0
-22.54 4.69438 0
-24.0804 6.06423 0
-22.6967 6.12252 0
-23.7782 3.07803 0
-22.3833 3.26624 0
-23.9293 4.57113 0
-22.54 4.69438 0
-22.3833 3.26624 0
-20.9885 3.45445 0
-22.54 4.69438 0
-21.1507 4.81763 0
-11.6468 -11.121 0
-10.7215 -11.1987 0
-11.7628 -10.1411 0
-10.875 -10.0387 0
-12.5721 -11.0433 0
-11.6468 -11.121 0
-12.6505 -10.2435 0
-11.7628 -10.1411 0
-12.4937 -11.843 0
-11.5308 -12.1008 0
-12.5721 -11.0433 0
-11.6468 -11.121 0
-11.5308 -12.1008 0
-10.568 -12.3587 0
-11.6468 -11.121 0
-10.7215 -11.1987 0
-2.50326 7.11325 0
-3.13491 7.14603 0
-2.54427 6.47215 0
-3.14696 6.48101 0
-1.87161 7.08046 0
-2.50326 7.11325 0
-1.94158 6.46329 0
-2.54427 6.47215 0
-1.80165 7.69764 0
-2.46226 7.75434 0
-1.87161 7.08046 0
-2.50326 7.11325 0
-2.46226 7.75434 0
-3.12286 7.81104 0
-2.50326 7.11325 0
-3.13491 7.14603 0
3.5911 9.16351 0
3.51861 8.35732 0
4.37179 9.07633 0
4.27849 8.2823 0
3.66359 9.9697 0
3.5911 9.16351 0
4.46509 9.87036 0
4.37179 9.07633 0
2.86209 10.069 0
2.8104 9.25069 0
3.66359 9.9697 0
3.5911 9.16351 0
2.8104 9.25069 0
2.75872 8.43233 0
3.5911 9.16351 0
3.51861 8.35732 0
-12.1495 8.87283 0
-13.0894 8.91204 0
-11.9664 7.67551 0
-13.0672 7.92355 0
-12.3326 10.0702 0
-13.1116 9.90053 0
-12.1495 8.87283 0
-13.0894 8.91204 0
-13.1116 9.90053 0
-13.8906 9.73091 0
-13.0894 8.91204 0
-14.0293 8.95125 0
-13.0894 8.91204 0
-14.0293 8.95125 0
-13.0672 7.92355 0
-14.168 8.1716 0
-1.77835 -7.04828 0
-2.22287 -7.59863 0
-1.20658 -7.49946 0
-1.63905 -8.10497 0
-1.33383 -6.49793 0
-1.77835 -7.04828 0
-0.774116 -6.89396 0
-1.20658 -7.49946 0
-1.89354 -6.1019 0
-2.35012 -6.59709 0
-1.33383 -6.49793 0
-1.77835 -7.04828 0
-2.35012 -6.59709 0
-2.80669 -7.09229 0
-1.77835 -7.04828 0
-2.22287 -7.59863 0
-6.93893 -4.74762 0
-7.57474 -4.97633 0
-6.64048 -5.39381 0
-7.28542 -5.67246 0
-6.64048 -5.39381 0
-7.28542 -5.67246 0
-6.34202 -6.03999 0
-6.99609 -6.36859 0
-5.99554 -5.11515 0
-6.64048 -5.39381 0
-5.68795 -5.71139 0
-6.34202 -6.03999 0
-6.30312 -4.51891 0
-6.93893 -4.74762 0
-5.99554 -5.11515 0
-6.64048 -5.39381 0
-4.13627 14.8846 0
-3.20346 14.7025 0
-3.72549 16.0873 0
-2.91736 15.6509 0
-3.20346 14.7025 0
-2.27064 14.5205 0
-2.91736 15.6509 0
-2.10922 15.2144 0
-2.91736 15.6509 0
-2.10922 15.2144 0
-2.63125 16.5992 0
-1.94779 15.9084 0
-3.72549 16.0873 0
-2.91736 15.6509 0
-3.31472 17.2901 0
-2.63125 16.5992 0
-12.0904 4.56424 0
-13.1499 4.35298 0
-12.0147 3.5623 0
-13.0128 3.25131 0
-13.1499 4.35298 0
-14.2095 4.14172 0
-13.0128 3.25131 0
-14.011 2.94031 0
-13.0128 3.25131 0
-14.011 2.94031 0
-12.8757 2.14963 0
-13.8124 1.73891 0
-12.0147 3.5623 0
-13.0128 3.25131 0
-11.9389 2.56035 0
-12.8757 2.14963 0
-14.4973 -1.23455 0
-15.4102 -1.14249 0
-14.5871 -2.09419 0
-15.501 -2.04948 0
-14.4074 -0.374916 0
-15.3193 -0.235495 0
-14.4973 -1.23455 0
-15.4102 -1.14249 0
-15.3193 -0.235495 0
-16.2312 -0.0960747 0
-15.4102 -1.14249 0
-16.3231 -1.05043 0
-15.4102 -1.14249 0
-16.3231 -1.05043 0
-15.501 -2.04948 0
-16.4149 -2.00478 0
-22.8325 11.8158 0
-22.8236 10.3856 0
-21.4198 11.769 0
-21.4198 10.3575 0
-24.2451 11.8627 0
-24.2275 10.4137 0
-22.8325 11.8158 0
-22.8236 10.3856 0
-24.2275 10.4137 0
-24.2099 8.96483 0
-22.8236 10.3856 0
-22.8148 8.95541 0
-22.8236 10.3856 0
-22.8148 8.95541 0
-21.4198 10.3575 0
-21.4198 8.94599 0
-11.0922 9.17528 0
-12.1495 8.87283 0
-10.8837 8.07528 0
-11.9664 7.67551 0
-10.035 9.47773 0
-11.0922 9.17528 0
-9.80091 8.47506 0
-10.8837 8.07528 0
-10.269 10.4804 0
-11.3008 10.2753 0
-10.035 9.47773 0
-11.0922 9.17528 0
-11.3008 10.2753 0
-12.3326 10.0702 0
-11.0922 9.17528 0
-12.1495 8.87283 0
43.3142 -22.7555 0
43.3354 -20.351 0
41.1074 -22.8355 0
41.1375 -20.4638 0
43.293 -25.16 0
43.3142 -22.7555 0
41.0773 -25.2073 0
41.1074 -22.8355 0
45.5086 -25.1128 0
45.521 -22.6755 0
43.293 -25.16 0
43.3142 -22.7555 0
45.521 -22.6755 0
45.5333 -20.2382 0
43.3142 -22.7555 0
43.3354 -20.351 0
-16.3231 -1.05043 0
-17.2986 -0.874468 0
-16.4149 -2.00478 0
-17.6318 -1.74455 0
-16.2312 -0.0960747 0
-16.9654 -0.00438669 0
-16.3231 -1.05043 0
-17.2986 -0.874468 0
-16.9654 -0.00438669 0
-17.6996 0.0873013 0
-17.2986 -0.874468 0
-18.2742 -0.69851 0
-17.2986 -0.874468 0
-18.2742 -0.69851 0
-17.6318 -1.74455 0
-18.8487 -1.48432 0
7.70551 8.728 0
7.59057 7.79818 0
8.67126 8.58884 0
8.51966 7.61618 0
8.67126 8.58884 0
8.51966 7.61618 0
9.63701 8.44968 0
9.44874 7.43417 0
8.82287 9.5615 0
8.67126 8.58884 0
9.82529 9.46519 0
9.63701 8.44968 0
7.82045 9.65782 0
7.70551 8.728 0
8.82287 9.5615 0
8.67126 8.58884 0
-10.568 -12.3587 0
-9.4299 -11.7943 0
-10.7215 -11.1987 0
-9.73225 -10.7819 0
-9.4299 -11.7943 0
-8.29184 -11.2298 0
-9.73225 -10.7819 0
-8.743 -10.3652 0
-9.73225 -10.7819 0
-8.743 -10.3652 0
-10.0346 -9.76962 0
-9.19415 -9.50053 0
-10.7215 -11.1987 0
-9.73225 -10.7819 0
-10.875 -10.0387 0
-10.0346 -9.76962 0
-0.992628 -5.97872 0
-1.33383 -6.49793 0
-0.461827 -6.32776 0
-0.774116 -6.89396 0
-0.651428 -5.45951 0
-0.992628 -5.97872 0
-0.149539 -5.76156 0
-0.461827 -6.32776 0
-1.52343 -5.62968 0
-1.89354 -6.1019 0
-0.992628 -5.97872 0
-1.33383 -6.49793 0
-1.95902 5.88694 0
-1.97647 5.3106 0
-1.41153 5.85629 0
-1.44378 5.29739 0
-1.41153 5.85629 0
-1.44378 5.29739 0
-0.864036 5.82564 0
-0.911087 5.28419 0
-1.37928 6.41519 0
-1.41153 5.85629 0
-0.816985 6.36708 0
-0.864036 5.82564 0
-1.94158 6.46329 0
-1.95902 5.88694 0
-1.37928 6.41519 0
-1.41153 5.85629 0
-7.61898 3.13513 0
-8.28961 2.89062 0
-7.34759 2.44289 0
-8.02811 2.21262 0
-7.89037 3.82736 0
-8.55111 3.56863 0
-7.61898 3.13513 0
-8.28961 2.89062 0
-8.55111 3.56863 0
-9.21186 3.3099 0
-8.28961 2.89062 0
-8.96025 2.64612 0
-8.28961 2.89062 0
-8.96025 2.64612 0
-8.02811 2.21262 0
-8.70863 1.98234 0
-7.20333 10.0045 0
-7.0992 9.08754 0
-6.2949 10.1203 0
-6.23338 9.22602 0
-7.30747 10.9215 0
-7.20333 10.0045 0
-6.35641 11.0145 0
-6.2949 10.1203 0
-8.25854 10.8286 0
-8.11177 9.88881 0
-7.30747 10.9215 0
-7.20333 10.0045 0
-8.11177 9.88881 0
-7.96501 8.94905 0
-7.20333 10.0045 0
-7.0992 9.08754 0
-14.6711 21.6404 0
-15.2613 22.6809 0
-15.5606 21.4736 0
-16.4726 22.3439 0
-13.7815 21.8072 0
-14.05 23.0178 0
-14.6711 21.6404 0
-15.2613 22.6809 0
-14.05 23.0178 0
-14.3185 24.2284 0
-15.2613 22.6809 0
-15.8515 23.7213 0
-15.2613 22.6809 0
-15.8515 23.7213 0
-16.4726 22.3439 0
-17.3845 23.2142 0
8.28025 -8.22933 0
8.11022 -9.03048 0
9.44436 -8.40409 0
9.10413 -9.53967 0
8.11022 -9.03048 0
7.94019 -9.83163 0
9.10413 -9.53967 0
8.76391 -10.6752 0
9.10413 -9.53967 0
8.76391 -10.6752 0
10.098 -10.0489 0
9.58763 -11.5189 0
9.44436 -8.40409 0
9.10413 -9.53967 0
10.6085 -8.57886 0
10.098 -10.0489 0
-4.56496 10.1878 0
-4.58372 9.33457 0
-3.73484 10.1441 0
-3.79358 9.30869 0
-3.73484 10.1441 0
-3.79358 9.30869 0
-2.90472 10.1003 0
-3.00344 9.28282 0
-3.6761 10.9795 0
-3.73484 10.1441 0
-2.806 10.9179 0
-2.90472 10.1003 0
-4.5462 11.0411 0
-4.56496 10.1878 0
-3.6761 10.9795 0
-3.73484 10.1441 0
-5.97918 -10.8953 0
-6.79883 -11.5721 0
-5.35887 -11.6103 0
-6.15199 -12.4391 0
-6.59949 -10.1802 0
-7.44567 -10.705 0
-5.97918 -10.8953 0
-6.79883 -11.5721 0
-7.44567 -10.705 0
-8.29184 -11.2298 0
-6.79883 -11.5721 0
-7.61848 -12.2489 0
-6.79883 -11.5721 0
-7.61848 -12.2489 0
-6.15199 -12.4391 0
-6.94512 -13.2679 0
-8.48226 -7.08832 0
-9.24225 -7.51075 0
-8.04764 -7.86663 0
-8.82292 -8.29174 0
-9.24225 -7.51075 0
-10.0023 -7.93318 0
-8.82292 -8.29174 0
-9.5982 -8.71686 0
-8.82292 -8.29174 0
-9.5982 -8.71686 0
-8.40358 -9.07273 0
-9.19415 -9.50053 0
-8.04764 -7.86663 0
-8.82292 -8.29174 0
-7.61302 -8.64493 0
-8.40358 -9.07273 0
-9.58421 -4.03208 0
-9.97545 -4.56766 0
-9.10178 -4.58193 0
-9.30992 -5.23763 0
-9.19297 -3.49651 0
-9.58421 -4.03208 0
-8.89364 -3.92624 0
-9.10178 -4.58193 0
-9.4923 -3.06677 0
-10.0666 -3.48223 0
-9.19297 -3.49651 0
-9.58421 -4.03208 0
-10.0666 -3.48223 0
-10.641 -3.89769 0
-9.58421 -4.03208 0
-9.97545 -4.56766 0
-3.83498 -3.1916 0
-4.26096 -3.46824 0
-3.5133 -3.61585 0
-3.93471 -3.91869 0
-3.5133 -3.61585 0
-3.93471 -3.91869 0
-3.19162 -4.0401 0
-3.60845 -4.36914 0
11.2983 12.8406 0
11.2328 11.5826 0
12.555 12.8024 0
12.4343 11.4913 0
11.3638 14.0985 0
11.2983 12.8406 0
12.6757 14.1136 0
12.555 12.8024 0
10.0518 14.0835 0
10.0415 12.8787 0
11.3638 14.0985 0
11.2983 12.8406 0
10.0415 12.8787 0
10.0312 11.6739 0
11.2983 12.8406 0
11.2328 11.5826 0
8.76391 -10.6752 0
7.55047 -10.9341 0
9.58763 -11.5189 0
8.12087 -11.9617 0
7.94019 -9.83163 0
6.98007 -9.90646 0
8.76391 -10.6752 0
7.55047 -10.9341 0
6.98007 -9.90646 0
6.01996 -9.98128 0
7.55047 -10.9341 0
6.33703 -11.1929 0
7.55047 -10.9341 0
6.33703 -11.1929 0
8.12087 -11.9617 0
6.65411 -12.4044 0
-9.07336 9.68327 0
-10.035 9.47773 0
-8.88296 8.71205 0
-9.80091 8.47506 0
-8.11177 9.88881 0
-9.07336 9.68327 0
-7.96501 8.94905 0
-8.88296 8.71205 0
-8.25854 10.8286 0
-9.26377 10.6545 0
-8.11177 9.88881 0
-9.07336 9.68327 0
-9.26377 10.6545 0
-10.269 10.4804 0
-9.07336 9.68327 0
-10.035 9.47773 0
-9.60428 13.876 0
-10.7175 13.7771 0
-9.51985 12.7576 0
-10.5969 12.6388 0
-8.49104 13.9749 0
-9.60428 13.876 0
-8.44276 12.8764 0
-9.51985 12.7576 0
-8.53932 15.0734 0
-9.68871 14.9943 0
-8.49104 13.9749 0
-9.60428 13.876 0
-9.68871 14.9943 0
-10.8381 14.9153 0
-9.60428 13.876 0
-10.7175 13.7771 0
20.5611 -10.7632 0
18.8151 -10.6841 0
20.6899 -12.5014 0
19.0629 -12.4858 0
22.307 -10.8422 0
20.5611 -10.7632 0
22.3168 -12.517 0
20.6899 -12.5014 0
22.2972 -9.16748 0
20.4322 -9.02499 0
22.307 -10.8422 0
20.5611 -10.7632 0
20.4322 -9.02499 0
18.5673 -8.88249 0
20.5611 -10.7632 0
[...]
POINT_DATA 23552
SCALARS solution_0 double 1
LOOKUP_TABLE default
1.00105 1.00126 1.00138 1.00163 1.00081 1.00105 1.00107 1.00138 1.00042 1.00061 1.00081 1.00105 1.00061 1.00078 1.00105 1.00126 0.999487 0.998738 0.999633 0.998931 0.999446 0.999487 0.999539 0.999633 0.999368 0.999366 0.999446 0.999487 0.999366 0.998565 0.999487 0.998738 1.00033 1.00072 0.99958 0.9997 1.00006 1.00033 0.999524 0.99958 1.00054 1.001 1.00006 1.00033 1.001 1.00157 1.00033 1.00072 1.00897 1.00609 1.00744 1.00426 1.0123 1.00897 1.01116 1.00744 1.01302 1.01002 1.0123 1.00897 1.01002 1.00739 1.00897 1.00609 1.02724 1.02995 1.02803 1.03068 1.02498 1.02724 1.02579 1.02803 1.02384 1.02601 1.02498 1.02724 1.02601 1.02865 1.02724 1.02995 0.998549 0.998595 0.997411 0.997833 0.999478 0.999279 0.998549 0.998595 0.999279 0.999152 0.998595 0.998686 0.998595 0.998686 0.997833 0.998212 1.01261 1.01077 1.01585 1.01367 1.01513 1.01261 1.01878 1.01585 1.0106 1.00863 1.01513 1.01261 1.00863 1.00726 1.01261 1.01077 0.989483 0.990732 0.99183 0.99279 0.99183 0.99279 0.994254 0.994932 0.990772 0.99183 0.993567 0.994254 0.988086 0.989483 0.990772 0.99183 1.0083 1.00943 1.00865 1.00958 1.00943 1.01064 1.00958 1.01061 1.00958 1.01061 1.00963 1.01055 1.00865 1.00958 1.00883 1.00963 0.994269 0.994993 0.993231 0.994077 0.994993 0.995677 0.994077 0.994882 0.994077 0.994882 0.993299 0.994211 0.993231 0.994077 0.99233 0.993299 0.994779 0.995604 0.995084 0.995856 0.994591 0.995457 0.994779 0.995604 0.995457 0.99619 0.995604 0.996304 0.995604 0.996304 0.995856 0.996517 1.00012 1 0.999652 0.999482 0.999863 0.999789 1.00012 1 0.999789 0.999709 1 0.999883 1 0.999883 0.999482 0.9993 0.998896 0.998549 0.997721 0.997411 0.999463 0.998896 0.998331 0.997721 1.00036 0.999833 0.999463 0.998896 0.999833 0.999478 0.998896 0.998549 1.01217 1.01252 1.01227 1.01261 1.01191 1.01217 1.01202 1.01227 1.0118 1.01207 1.01191 1.01217 1.01207 1.01243 1.01217 1.01252 0.996304 0.996951 0.996517 0.997242 0.99619 0.996713 0.996304 0.996951 0.996713 0.997134 0.996951 0.997486 0.996951 0.997486 0.997242 0.997826 1.02719 1.02923 1.02626 1.02802 1.02626 1.02802 1.02518 1.02664 1.02462 1.02626 1.02377 1.02518 1.02534 1.02719 1.02462 1.02626 1.00157 1.00181 1.00072 1.00084 1.00181 1.00217 1.00084 1.00102 1.00084 1.00102 0.999718 0.999777 1.00072 1.00084 0.9997 0.999718 1.01779 1.01513 1.0218 1.01878 1.02142 1.01779 1.02583 1.0218 1.01282 1.0106 1.01779 1.01513 1.00989 1.00798 1.01435 1.01319 1.01435 1.01319 1.01927 1.01901 1.01502 1.01435 1.01924 1.01927 1.01116 1.00989 1.01502 1.01435 0.984917 0.985915 0.981909 0.983557 0.987628 0.988127 0.984917 0.985915 0.988127 0.988807 0.985915 0.98702 0.985915 0.98702 0.983557 0.985184 1.00202 1.00088 1.00326 1.00217 1.00288 1.00202 1.00408 1.00326 1.0019 1.00102 1.00288 1.00202 1.00102 0.999873 1.00202 1.00088 1.00221 1.0021 1.00193 1.00172 1.00253 1.00249 1.00221 1.0021 1.00249 1.00246 1.0021 1.00199 1.0021 1.00199 1.00172 1.00134 1.02732 1.02613 1.02544 1.02433 1.02613 1.02492 1.02433 1.02305 1.02433 1.02305 1.02288 1.02151 1.02544 1.02433 1.02381 1.02288 1.00624 1.00531 1.00798 1.00717 1.00798 1.00717 1.00997 1.00934 1.00852 1.00798 1.01036 1.00997 1.00689 1.00624 1.00852 1.00798 1.0044 1.00392 1.00582 1.00524 1.00284 1.00245 1.0044 1.00392 1.00245 1.00217 1.00392 1.00355 1.00392 1.00355 1.00524 1.00478 0.996264 0.996943 0.997924 0.9983 0.996943 0.997515 0.9983 0.99864 0.9983 0.99864 0.999671 0.999777 0.997924 0.9983 0.999591 0.999671 0.990692 0.992128 0.991193 0.992738 0.989064 0.990692 0.989469 0.991193 0.988842 0.990496 0.989064 0.990692 0.990496 0.991904 0.990692 0.992128 0.97636 0.979608 0.982271 0.984542 0.982271 0.984542 0.988587 0.989811 1.01948 1.02059 1.019 1.01997 1.01846 1.01948 1.01807 1.019 1.01878 1.01991 1.01846 1.01948 1.01991 1.02116 1.01948 1.02059 1.02305 1.02327 1.02151 1.02155 1.02492 1.02539 1.02305 1.02327 1.02539 1.0256 1.02327 1.02309 1.02327 1.02309 1.02155 1.0211 1.00013 0.999463 0.998976 0.998331 1.00102 1.00013 0.999873 0.998976 1.0019 1.00103 1.00102 1.00013 1.00103 1.00036 1.00013 0.999463 1.00296 1.00228 1.00245 1.00176 1.00379 1.00296 1.00329 1.00245 1.00415 1.00334 1.00379 1.00296 1.00334 1.00266 1.00296 1.00228 1.01662 1.0172 1.01623 1.01668 1.01616 1.01662 1.01585 1.01623 1.01635 1.01686 1.01616 1.01662 1.01686 1.01756 1.01662 1.0172 1.00266 1.00206 1.00228 1.00168 1.00206 1.00156 1.00168 1.00119 1.00168 1.00119 1.00117 1.0007 1.00228 1.00168 1.00176 1.00117 0.99661 0.996339 0.997252 0.997001 0.997009 0.99661 0.997617 0.997252 0.996307 0.995882 0.997009 0.99661 0.995882 0.995586 0.99661 0.996339 1.01551 1.01529 1.01533 1.0151 1.01573 1.01552 1.01551 1.01529 1.01552 1.01524 1.01529 1.01501 1.01529 1.01501 1.0151 1.01481 1.01929 1.02063 1.01909 1.02033 1.02063 1.02213 1.02033 1.0217 1.02033 1.0217 1.01991 1.02116 1.01909 1.02033 1.01878 1.01991 1.00013 0.999652 0.999894 0.999482 0.999894 0.999482 0.999649 0.9993 0.999423 0.999894 0.999095 0.999649 0.999735 1.00013 0.999423 0.999894 0.995275 0.994602 0.995084 0.994506 0.995586 0.994805 0.995275 0.994602 0.994805 0.993893 0.994602 0.993838 0.994602 0.993838 0.994506 0.993868 0.987356 0.988885 0.989483 0.990732 0.985603 0.987356 0.988086 0.989483 0.98338 0.985441 0.985603 0.987356 0.985441 0.987188 0.987356 0.988885 1.00184 1.00245 1.00116 1.00176 1.00103 1.00184 1.00036 1.00116 1.0019 1.0027 1.00103 1.00184 1.0027 1.00329 1.00184 1.00245 1.01857 1.02017 1.01826 1.02001 1.01826 1.02001 1.01787 1.01966 1.01675 1.01826 1.01628 1.01787 1.01721 1.01857 1.01675 1.01826 1.01456 1.01421 1.01434 1.01399 1.01421 1.01388 1.01399 1.01366 1.01399 1.01366 1.01379 1.01346 1.01434 1.01399 1.01414 1.01379 0.985273 0.980965 0.987369 0.984286 0.988559 0.985273 0.989898 0.987369 0.987811 0.983835 0.988559 0.985273 0.983835 0.978548 0.985273 0.980965 1.04234 1.03684 1.04637 1.03993 1.03684 1.03096 1.03993 1.03292 1.00126 0.999591 1.0011 0.999671 1.0011 0.999671 1.00102 0.999777 1.00245 1.0011 1.00217 1.00102 1.00284 1.00126 1.00245 1.0011 1.01046 1.01022 1.01117 1.0109 1.01082 1.01046 1.01158 1.01117 1.00997 1.00967 1.01082 1.01046 1.00967 1.00947 1.01046 1.01022 1.01317 1.0128 1.01273 1.01242 1.01384 1.01338 1.01317 1.0128 1.01338 1.01278 1.0128 1.01231 1.0128 1.01231 1.01242 1.01201 1.02366 1.02311 1.02213 1.0217 1.02534 1.02462 1.02366 1.02311 1.02462 1.02377 1.02311 1.02243 1.02311 1.02243 1.0217 1.02116 0.993584 0.994011 0.992417 0.993151 0.994591 0.994779 0.993584 0.994011 0.994779 0.995084 0.994011 0.994506 0.994011 0.994506 0.993151 0.993868 1.02254 1.0221 1.02559 1.02456 1.02016 1.02 1.02254 1.0221 1.02 1.01934 1.0221 1.02123 1.0221 1.02123 1.02456 1.02326 1.01243 1.01313 1.01318 1.01409 1.01313 1.01395 1.01409 1.01519 1.01409 1.01519 1.0149 1.01628 1.01318 1.01409 1.01379 1.0149 0.978657 0.982195 0.980762 0.983607 0.982195 0.985004 0.983607 0.985918 0.983607 0.985918 0.985441 0.987188 0.980762 0.983607 0.98338 0.985441 1.00334 1.00364 1.00266 1.00297 1.00415 1.00442 1.00334 1.00364 1.00442 1.00459 1.00364 1.00385 1.00364 1.00385 1.00297 1.0032 0.99788 0.99868 0.997584 0.998422 0.99868 0.998565 0.998422 0.998363 0.998422 0.998363 0.998165 0.998263 0.997584 0.998422 0.997382 0.998165 1.01452 1.01235 1.01446 1.01211 1.01235 1.01036 1.01211 1.00997 1.01211 1.00997 1.01162 1.00934 1.01446 1.01211 1.01419 1.01162 1.01389 1.01667 1.01152 1.01367 1.01173 1.01389 1.0099 1.01152 1.01315 1.01565 1.01173 1.01389 1.01565 1.01871 1.01389 1.01667 0.998331 0.998659 0.997877 0.998275 0.998801 0.999043 0.998331 0.998659 0.999043 0.999095 0.998659 0.998774 0.998659 0.998774 0.998275 0.99847 0.994414 0.994269 0.993338 0.993322 0.993338 0.993322 0.992059 0.992194 0.993555 0.993338 0.992034 0.992059 0.99484 0.994414 0.993555 0.993338 1.00117 1.00134 1.00121 1.00132 1.00121 1.00132 1.00042 1.00048 1.00108 1.00121 1.00036 1.00042 1.00099 1.00117 1.00108 1.00121 1.00372 1.004 1.0046 1.00487 1.004 1.00417 1.00487 1.00505 1.00487 1.00505 1.00586 1.00603 1.0046 1.00487 1.0056 1.00586 1.01341 1.01311 1.01337 1.0131 1.01382 1.01341 1.01374 1.01337 1.01387 1.0134 1.01382 1.01341 1.0134 1.01306 1.01341 1.01311 1.00596 1.00898 1.00726 1.01077 1.00507 1.00768 1.00596 1.00898 1.00768 1.0099 1.00898 1.01152 1.00898 1.01152 1.01077 1.01367 1.00635 1.00638 1.00736 1.00756 1.00736 1.00756 1.0084 1.00883 1.00715 1.00736 1.00801 1.0084 1.0063 1.00635 1.00715 1.00736 0.999649 0.9993 0.999407 0.999114 0.999407 0.999114 0.999163 0.998931 0.998774 0.999407 0.99847 0.999163 0.999095 0.999649 0.998774 0.999407 1.03264 1.02832 1.0353 1.03101 1.02832 1.02505 1.03101 1.02767 1.03101 1.02767 1.03281 1.02949 1.0353 1.03101 1.03696 1.03281 1.01427 1.01395 1.01378 1.0133 1.01378 1.0133 1.01338 1.01278 1.01417 1.01378 1.01384 1.01338 1.01455 1.01427 1.01417 1.01378 0.993299 0.994211 0.992443 0.993317 0.992443 0.993317 0.991532 0.992331 0.991454 0.992443 0.990651 0.991532 0.99233 0.993299 0.991454 0.992443 0.991942 0.992417 0.992938 0.993151 0.992938 0.993151 0.993838 0.993868 0.992868 0.992938 0.993893 0.993838 0.991676 0.991942 0.992868 0.992938 1.02131 1.02033 1.02001 1.01922 1.02803 1.03068 1.02838 1.03101 1.02838 1.03101 1.02835 1.03082 1.02614 1.02838 1.0262 1.02835 1.02579 1.02803 1.02614 1.02838 0.995619 0.997127 0.995106 0.996567 0.997127 0.998331 0.996567 0.997721 0.996567 0.997721 0.996289 0.997411 0.995106 0.996567 0.99484 0.996289 1.00911 1.00776 1.00932 1.00806 1.00932 1.00806 1.00941 1.00825 1.01074 1.00932 1.01069 1.00941 1.01068 1.00911 1.01074 1.00932 1.00933 1.0084 1.00987 1.00883 1.01018 1.00933 1.01078 1.00987 1.00967 1.00886 1.01018 1.00933 1.00886 1.00801 1.00933 1.0084 1.04225 1.03831 1.04069 1.03706 1.04069 1.03706 1.03854 1.03533 0.999994 1.00032 1.00005 1.00041 1.00032 0.999953 1.00041 1.00008 1.00041 1.00008 1.00048 1.00019 1.00005 1.00041 1.0001 1.00048 0.999366 0.999165 0.998565 0.998363 0.999368 0.999235 0.999366 0.999165 0.999235 0.99918 0.999165 0.998996 0.999165 0.998996 0.998363 0.998263 1.01508 1.01537 1.01467 1.01491 1.01537 1.0157 1.01491 1.01517 1.01491 1.01517 1.01446 1.01466 1.01467 1.01491 1.01427 1.01446 1.01811 1.01754 1.01767 1.01719 1.00188 1.00133 1.00193 1.00135 1.00193 1.00135 1.00199 1.00134 1.00241 1.00193 1.00246 1.00199 1.00235 1.00188 1.00241 1.00193 1.00507 1.00596 1.00237 1.00288 1.00596 1.00726 1.00288 1.00371 1.00288 1.00371 0.99949 0.999773 1.00237 1.00288 0.999427 0.99949 1.05222 1.0558 1.05403 1.0606 1.0558 1.05844 1.0606 1.06557 1.0256 1.02464 1.02309 1.02244 1.02464 1.0232 1.02244 1.02137 1.02244 1.02137 1.02064 1.01984 1.02309 1.02244 1.0211 1.02064 1.00047 1.00034 1.00094 1.00072 1.00094 1.00072 1.0014 1.00107 1.00126 1.00094 1.0019 1.0014 1.00068 1.00047 1.00126 1.00094 1.01307 1.01336 1.01295 1.01324 1.01284 1.01307 1.01272 1.01295 1.01295 1.01318 1.01284 1.01307 1.01318 1.01348 1.01307 1.01336 1.03082 1.03315 1.0291 1.03097 1.03315 1.03533 1.03097 1.03272 1.03097 1.03272 1.02882 1.03024 1.0291 1.03097 1.02732 1.02882 1.00011 1.00005 1.00013 1.0001 1.00003 1.00011 1.00004 1.00013 1.00001 1.00008 1.00003 1.00011 1.00008 0.999994 1.00011 1.00005 1.05155 1.05706 1.05457 1.06029 1.05706 1.06391 1.06029 1.06724 1.06029 1.06724 1.06249 1.06887 1.05457 1.06029 1.05704 1.06249 1.00379 1.00329 1.0047 1.00422 1.0047 1.00422 1.00576 1.00531 1.00504 1.0047 1.00607 1.00576 1.00415 1.00379 1.00504 1.0047 1.01712 1.01756 1.01767 1.0182 1.01654 1.01691 1.01712 1.01756 1.01691 1.01727 1.01756 1.01801 1.01756 1.01801 1.0182 1.01876 0.999203 0.999809 0.999402 0.999941 0.999 0.99968 0.999203 0.999809 0.99968 0.999565 0.999809 0.999652 0.999809 0.999652 0.999941 0.999735 1.0341 1.03692 1.03195 1.0342 1.01547 1.01582 1.01617 1.01653 1.01617 1.01653 1.01691 1.01727 1.01583 1.01617 1.01654 1.01691 1.01514 1.01547 1.01583 1.01617 1.02146 1.02295 1.02112 1.02275 1.02001 1.02146 1.01966 1.02112 1.02017 1.02162 1.02001 1.02146 1.02162 1.02303 1.02146 1.02295 0.963528 0.963987 0.967663 0.968718 0.967663 0.968718 0.971238 0.972651 0.967304 0.967663 0.970476 0.971238 0.963765 0.963528 0.967304 0.967663 1.03033 1.03275 1.03291 1.03587 1.03275 1.03564 1.03587 1.03946 1.03587 1.03946 1.03841 1.04264 1.03291 1.03587 1.03494 1.03841 1.01103 1.00965 1.01042 1.0093 1.00965 1.0083 1.0093 1.00818 1.0093 1.00818 1.00903 1.00807 1.01042 1.0093 1.00997 1.00903 1.03155 1.02923 1.03288 1.0302 1.03288 1.0302 1.03378 1.03082 1.03596 1.03288 1.03734 1.03378 1.0341 1.03155 1.03596 1.03288 0.99233 0.991454 0.991439 0.990401 0.991454 0.990651 0.990401 0.989449 0.990401 0.989449 0.989263 0.988114 0.991439 0.990401 0.99048 0.989263 0.989701 0.984982 0.992156 0.987105 0.992156 0.987105 0.995754 0.990835 0.995931 0.992156 0.999242 0.995754 0.993487 0.989701 0.995931 0.992156 1.00053 1.00081 1.00072 1.00107 1.00021 1.00053 1.00034 1.00072 0.999961 1.0002 1.00021 1.00053 1.0002 1.00042 1.00053 1.00081 1.01756 1.01895 1.01857 1.02017 1.01639 1.01756 1.01721 1.01857 1.01549 1.01637 1.01639 1.01756 1.01637 1.01736 1.01756 1.01895 1.02137 1.01909 1.01871 1.01667 1.02233 1.01878 1.01909 1.01585 1.01909 1.01585 1.01667 1.01367 1.01444 1.01432 1.01509 1.01488 1.01387 1.01382 1.01444 1.01432 1.01382 1.01374 1.01432 1.01417 1.01432 1.01417 1.01488 1.01466 0.965563 0.959643 0.968427 0.962806 0.963987 0.95819 0.965563 0.959643 1.01173 1.01243 1.01241 1.01318 1.01241 1.01318 1.01299 1.01379 1.01176 1.01241 1.0123 1.01299 1.01113 1.01173 1.01176 1.01241 1.01288 1.01297 1.01339 1.01348 1.01241 1.01252 1.01288 1.01297 1.01252 1.01263 1.01297 1.01308 1.01297 1.01308 1.01348 1.01358 1.03946 1.04305 1.04264 1.0467 1.03564 1.03868 1.03946 1.04305 1.03868 1.04234 1.04305 1.04736 1.04305 1.04736 1.0467 1.05155 1.01425 1.01379 1.01532 1.0149 1.01532 1.0149 1.01661 1.01628 1.01555 1.01532 1.01669 1.01661 1.01457 1.01425 1.01555 1.01532 1.02579 1.02614 1.02433 1.02445 1.02614 1.0262 1.02445 1.02438 1.02445 1.02438 1.02295 1.02275 1.02433 1.02445 1.02303 1.02295 1.0014 1.00107 1.00179 1.00138 1.00179 1.00138 1.00209 1.00163 1.00236 1.00179 1.00267 1.00209 1.0019 1.0014 1.00236 1.00179 1.02419 1.02221 1.02581 1.02377 1.02221 1.02055 1.02377 1.02205 1.02377 1.02205 1.02495 1.0232 1.02581 1.02377 1.027 1.02495 0.999883 0.999755 0.9993 0.999114 0.999709 0.999625 0.999883 0.999755 0.999625 0.999539 0.999755 0.999633 0.999755 0.999633 0.999114 0.998931 0.996523 0.999427 0.996153 0.99949 0.996153 0.99949 0.995889 0.999773 0.992741 0.996153 0.991897 0.995889 0.993567 0.996523 0.992741 0.996153 1.00415 1.00504 1.00442 1.00529 1.00504 1.00607 1.00529 1.00627 1.00529 1.00627 1.00544 1.00638 1.00442 1.00529 1.00459 1.00544 1.00863 1.00458 1.00726 1.00371 1.0106 1.00595 1.00863 1.00458 1.00595 1.00066 1.00458 1.00004 1.00458 1.00004 1.00371 0.999773 0.999749 0.999395 0.999702 0.999262 0.999702 0.999262 0.999652 0.99918 0.99985 0.999702 0.999842 0.999652 0.999866 0.999749 0.99985 0.999702 1.03033 1.02775 1.02781 1.02607 1.02775 1.02559 1.02607 1.02456 1.02607 1.02456 1.0241 1.02326 1.02781 1.02607 1.02502 1.0241 1.00001 0.999887 0.999974 0.999815 0.999974 0.999815 0.999932 0.999735 0.999967 0.999974 0.999948 0.999932 0.999985 1.00001 0.999967 0.999974 1.00992 1.01059 1.00949 1.01015 1.00918 1.00992 1.00877 1.00949 1.00967 1.01043 1.00918 1.00992 1.01043 1.01113 1.00992 1.01059 0.993567 0.994254 0.996523 0.99682 0.994254 0.994932 0.99682 0.997184 0.99682 0.997184 0.999358 0.999417 0.996523 0.99682 0.999427 0.999358 0.994504 0.994058 0.992469 0.992159 0.995291 0.994504 0.993145 0.992469 0.99702 0.996162 0.995291 0.994504 0.996162 0.995619 0.994504 0.994058 1.01224 1.01158 1.0118 1.01117 1.0118 1.01117 1.0115 1.0109 1.01231 1.0118 1.01201 1.0115 1.01278 1.01224 1.01231 1.0118 1.01384 1.01317 1.01391 1.01333 1.01317 1.01273 1.01333 1.01294 1.01333 1.01294 1.0134 1.01306 1.01391 1.01333 1.01387 1.0134 0.959933 0.955823 0.958328 0.95208 0.963528 0.958328 0.963987 0.95819 0.963765 0.959933 0.963528 0.958328 1.03195 1.02973 1.02994 1.02816 1.02994 1.02816 1.02802 1.02664 1.03155 1.02994 1.02923 1.02802 1.0341 1.03195 1.03155 1.02994 1.01944 1.01876 1.02018 1.01937 1.02018 1.01937 1.02094 1.01997 1.02097 1.02018 1.0219 1.02094 1.02007 1.01944 1.02097 1.02018 1.03104 1.02814 1.03194 1.02924 1.02949 1.02653 1.03104 1.02814 1.02653 1.02419 1.02814 1.02581 1.02814 1.02581 1.02924 1.027 1.01534 1.01576 1.0152 1.01557 1.0149 1.01534 1.01479 1.0152 1.01502 1.01551 1.0149 1.01534 1.01551 1.01598 1.01534 1.01576 1.01568 1.01626 1.01551 1.01598 1.0151 1.01568 1.01502 1.01551 1.01514 1.01583 1.0151 1.01568 1.01583 1.01654 1.01568 1.01626 1.01791 1.01929 1.01784 1.01909 1.01784 1.01909 1.01764 1.01878 1.01672 1.01784 1.01663 1.01764 1.01669 1.01791 1.01672 1.01784 1.0126 1.01272 1.01293 1.01303 1.01249 1.0126 1.01284 1.01293 1.01223 1.01235 1.01249 1.0126 1.01235 1.01247 1.0126 1.01272 1.00084 1.00098 1.00069 1.00084 1.00099 1.00108 1.00084 1.00098 1.00108 1.00036 1.00098 1.00028 1.00098 1.00028 1.00084 1.00019 1.034 1.03125 1.03272 1.03024 1.03706 1.034 1.03533 1.03272 1.03831 1.03493 1.03706 1.034 1.03493 1.03202 1.034 1.03125 1.0482 1.04282 1.04857 1.04331 1.04662 1.04129 1.0482 1.04282 1.04129 1.03696 1.04282 1.03839 1.04282 1.03839 1.04331 1.03893 1.01163 1.01022 1.01038 1.00902 1.01315 1.01173 1.01163 1.01022 1.01173 1.0099 1.01022 1.0085 1.01022 1.0085 1.00902 1.00742 1.01598 1.01641 1.01576 1.01613 0.990166 0.990494 0.988127 0.988807 0.99007 0.990166 0.987628 0.988127 0.992159 0.991975 0.99007 0.990166 0.991975 0.992034 0.990166 0.990494 0.997001 0.996697 0.99762 0.99737 0.996697 0.996517 0.99737 0.997242 0.99737 0.997242 0.997812 0.997826 0.99762 0.99737 0.997989 0.997812 1.01484 1.01453 1.01476 1.01446 1.01482 1.01567 1.01485 1.01563 1.01567 1.01663 1.01563 1.0165 1.01563 1.0165 1.01552 1.01631 1.01485 1.01563 1.01481 1.01552 1.01362 1.01466 1.01302 1.01395 1.0125 1.01362 1.012 1.01302 1.01307 1.01431 1.0125 1.01362 1.01431 1.01549 1.01362 1.01466 1.01405 1.01482 1.01414 1.01485 1.01414 1.01485 1.01415 1.01481 1.01353 1.01414 1.0136 1.01415 1.01338 1.01405 1.01353 1.01414 1.05227 1.05845 1.05706 1.06391 1.04736 1.05227 1.05155 1.05706 1.04234 1.04637 1.04736 1.05227 1.04637 1.05158 1.05227 1.05845 1.01446 1.01419 1.01711 1.01664 1.01711 1.01664 1.02 1.01934 1.01726 1.01711 1.02016 1.02 1.01452 1.01446 1.01726 1.01711 1.01348 1.01358 1.014 1.01408 1.014 1.01408 1.01449 1.01456 1.01392 1.014 1.01443 1.01449 1.01339 1.01348 1.01392 1.014 1.00987 1.00883 1.01053 1.00963 1.01053 1.00963 1.0113 1.01055 1.01135 1.01053 1.012 1.0113 1.01078 1.00987 1.01135 1.01053 1.03531 1.03512 1.0322 1.03194 1.03493 1.03531 1.03202 1.0322 1.03831 1.03898 1.03493 1.03531 1.03898 1.03893 1.03531 1.03512 1.00723 1.00622 1.00718 1.00623 1.00718 1.00623 1.00713 1.00622 1.00818 1.00718 1.00807 1.00713 1.0083 1.00723 1.00818 1.00718 1.00337 1.00358 1.00417 1.00435 1.00267 1.00289 1.00337 1.00358 1.00289 1.00304 1.00358 1.00372 1.00358 1.00372 1.00435 1.00447 1.01043 1.01099 1.01113 1.01173 1.00967 1.01018 1.01043 1.01099 1.01018 1.01078 1.01099 1.01165 1.01099 1.01165 1.01173 1.01243 1.00139 1.00162 0.999475 0.999417 1.00126 1.00139 0.999591 0.999475 1.00284 1.00319 1.00126 1.00139 1.00319 1.00368 1.00139 1.00162 1.00507 1.00425 1.00768 1.00652 1.00425 1.00368 1.00652 1.00566 1.00652 1.00566 1.0085 1.00742 1.00768 1.00652 1.0099 1.0085 1.00967 1.00882 1.00947 1.00868 1.00997 1.00903 1.00967 1.00882 1.00903 1.00807 1.00882 1.00793 1.00882 1.00793 1.00868 1.00784 0.995882 0.99506 0.995586 0.994805 0.996307 0.995468 0.995882 0.99506 0.995468 0.994448 0.99506 0.994077 0.99506 0.994077 0.994805 0.993893 0.99867 0.998828 0.999524 0.999512 0.997708 0.998112 0.99867 0.998828 0.998112 0.99847 0.998828 0.99899 0.998828 0.99899 0.999512 0.999519 0.999736 0.999368 0.999779 0.999446 0.999779 0.999446 0.999831 0.999539 0.999881 0.999779 0.999904 0.999831 0.999863 0.999736 0.999881 0.999779 1.00063 1.00068 1.00118 1.00126 1.00118 1.00126 1.00181 1.0019 1.001 1.00118 1.00157 1.00181 1.00054 1.00063 1.001 1.00118 0.978673 0.981435 0.982285 0.984563 0.975374 0.978673 0.979608 0.982285 0.971967 0.975659 0.975374 0.978673 0.975659 0.978729 0.978673 0.981435 0.979057 0.977656 0.984376 0.984982 0.980965 0.979057 0.984286 0.984376 0