# vtk DataFile Version 3.0
#This file was generated by the deal.II library on 2020/11/21 at 20:24:51
ASCII
DATASET UNSTRUCTURED_GRID

POINTS 13776 double
1.69187 8.72524 0
1.04531 9.16465 0
1.30255 8.04898 0
0.735179 8.34257 0
2.33843 8.28584 0
1.69187 8.72524 0
1.86993 7.7554 0
1.30255 8.04898 0
2.80693 8.81627 0
2.08118 9.4015 0
2.33843 8.28584 0
1.69187 8.72524 0
2.08118 9.4015 0
1.35544 9.98674 0
1.69187 8.72524 0
1.04531 9.16465 0
-19.2768 16.0726 0
-17.6802 15.8982 0
-18.9849 17.564 0
-17.1877 17.3893 0
-20.8735 16.2469 0
-19.2768 16.0726 0
-20.782 17.7386 0
-18.9849 17.564 0
-20.965 14.7552 0
-19.5688 14.5811 0
-20.8735 16.2469 0
-19.2768 16.0726 0
-19.5688 14.5811 0
-18.1727 14.4071 0
-19.2768 16.0726 0
-17.6802 15.8982 0
19.2883 18.8315 0
17.5113 18.5816 0
19.405 17.005 0
17.4891 16.7433 0
21.0654 19.0814 0
19.2883 18.8315 0
21.321 17.2667 0
19.405 17.005 0
20.8099 20.896 0
19.1717 20.6579 0
21.0654 19.0814 0
19.2883 18.8315 0
19.1717 20.6579 0
17.5334 20.4199 0
19.2883 18.8315 0
17.5113 18.5816 0
-8.06053 -1.53952 0
-7.80191 -2.17882 0
-7.41146 -1.30683 0
-7.18208 -1.91159 0
-8.31914 -0.900226 0
-8.06053 -1.53952 0
-7.64085 -0.702069 0
-7.41146 -1.30683 0
-8.99744 -1.09838 0
-8.70959 -1.77222 0
-8.31914 -0.900226 0
-8.06053 -1.53952 0
-8.70959 -1.77222 0
-8.42174 -2.44605 0
-8.06053 -1.53952 0
-7.80191 -2.17882 0
2.59284 6.07115 0
2.19846 6.50623 0
2.11993 5.70301 0
1.68526 6.11056 0
2.98721 5.63608 0
2.59284 6.07115 0
2.55461 5.29546 0
2.11993 5.70301 0
3.41982 5.9767 0
3.06575 6.4393 0
2.98721 5.63608 0
2.59284 6.07115 0
3.06575 6.4393 0
2.71167 6.9019 0
2.59284 6.07115 0
2.19846 6.50623 0
-6.84213 1.34909 0
-7.44622 1.27764 0
-6.73364 0.77993 0
-7.34801 0.67198 0
-6.95062 1.91826 0
-7.54443 1.88331 0
-6.84213 1.34909 0
-7.44622 1.27764 0
-7.54443 1.88331 0
-8.13825 1.84836 0
-7.44622 1.27764 0
-8.05031 1.2062 0
-7.44622 1.27764 0
-8.05031 1.2062 0
-7.34801 0.67198 0
-7.96238 0.564031 0
-9.26931 9.1231 0
-9.54374 8.25584 0
-8.44628 8.98803 0
-8.65793 8.26318 0
-8.99489 9.99036 0
-9.26931 9.1231 0
-8.23463 9.71287 0
-8.44628 8.98803 0
-9.75515 10.2679 0
-10.0923 9.25818 0
-8.99489 9.99036 0
-9.26931 9.1231 0
-10.0923 9.25818 0
-10.4295 8.24851 0
-9.26931 9.1231 0
-9.54374 8.25584 0
18.0103 -9.38475 0
16.4618 -9.56969 0
18.0596 -10.8859 0
16.3503 -11.176 0
19.5589 -9.1998 0
18.0103 -9.38475 0
19.7689 -10.5958 0
18.0596 -10.8859 0
19.3488 -7.80383 0
17.9611 -7.88362 0
19.5589 -9.1998 0
18.0103 -9.38475 0
17.9611 -7.88362 0
16.5734 -7.96341 0
18.0103 -9.38475 0
16.4618 -9.56969 0
-0.828251 13.5371 0
-0.636022 12.7209 0
-0.0401346 13.7224 0
0.219989 13.1284 0
-1.02048 14.3533 0
-0.828251 13.5371 0
-0.300258 14.3164 0
-0.0401346 13.7224 0
-1.7407 14.3902 0
-1.61637 13.3518 0
-1.02048 14.3533 0
-0.828251 13.5371 0
-1.61637 13.3518 0
-1.49203 12.3134 0
-0.828251 13.5371 0
-0.636022 12.7209 0
1.62623 3.9874 0
1.18743 3.70438 0
1.86119 3.51644 0
1.38301 3.17174 0
2.06502 4.27043 0
1.62623 3.9874 0
2.33938 3.86114 0
1.86119 3.51644 0
1.79066 4.67972 0
1.39126 4.45837 0
2.06502 4.27043 0
1.62623 3.9874 0
1.39126 4.45837 0
0.991859 4.23703 0
1.62623 3.9874 0
1.18743 3.70438 0
-22.4609 14.8263 0
-22.4044 16.3166 0
-23.9567 14.8974 0
-23.9352 16.3864 0
-20.965 14.7552 0
-20.8735 16.2469 0
-22.4609 14.8263 0
-22.4044 16.3166 0
-20.8735 16.2469 0
-20.782 17.7386 0
-22.4044 16.3166 0
-22.3479 17.807 0
-22.4044 16.3166 0
-22.3479 17.807 0
-23.9352 16.3864 0
-23.9137 17.8754 0
7.90685 0.715506 0
8.23293 -0.0426964 0
8.79154 0.895034 0
8.95431 0.0369836 0
8.79154 0.895034 0
8.95431 0.0369836 0
9.67624 1.07456 0
9.67569 0.116664 0
8.62878 1.75308 0
8.79154 0.895034 0
9.6768 2.03246 0
9.67624 1.07456 0
7.58076 1.47371 0
7.90685 0.715506 0
8.62878 1.75308 0
8.79154 0.895034 0
-14.714 -22.5266 0
-16.2289 -22.4716 0
-14.8034 -24.0006 0
-16.331 -23.9686 0
-14.6246 -21.0525 0
-16.1267 -20.9746 0
-14.714 -22.5266 0
-16.2289 -22.4716 0
-16.1267 -20.9746 0
-17.6289 -20.8967 0
-16.2289 -22.4716 0
-17.7438 -22.4167 0
-16.2289 -22.4716 0
-17.7438 -22.4167 0
-16.331 -23.9686 0
-17.8586 -23.9367 0
-4.80364 0.0101128 0
-4.66792 -0.473595 0
-4.29013 0.105823 0
-4.17621 -0.35229 0
-5.31715 -0.0855973 0
-5.15964 -0.594901 0
-4.80364 0.0101128 0
-4.66792 -0.473595 0
-5.15964 -0.594901 0
-5.00212 -1.1042 0
-4.66792 -0.473595 0
-4.53221 -0.957303 0
-4.66792 -0.473595 0
-4.53221 -0.957303 0
-4.17621 -0.35229 0
-4.06229 -0.810402 0
-20.8646 22.3996 0
-19.301 22.427 0
-20.9393 23.9476 0
-19.3999 23.9723 0
-20.7898 20.8515 0
-19.202 20.8818 0
-20.8646 22.3996 0
-19.301 22.427 0
-19.202 20.8818 0
-17.6143 20.912 0
-19.301 22.427 0
-17.7374 22.4545 0
-19.301 22.427 0
-17.7374 22.4545 0
-19.3999 23.9723 0
-17.8604 23.9969 0
-11.7755 1.15436 0
-11.7435 0.240897 0
-10.8977 1.03469 0
-10.8997 0.251864 0
-11.8074 2.06783 0
-11.7755 1.15436 0
-10.8957 1.81752 0
-10.8977 1.03469 0
-12.7191 2.31814 0
-12.6532 1.27403 0
-11.8074 2.06783 0
-11.7755 1.15436 0
-12.6532 1.27403 0
-12.5874 0.22993 0
-11.7755 1.15436 0
-11.7435 0.240897 0
-0.155227 3.44091 0
-0.122559 3.04042 0
0.229883 3.52413 0
0.32752 3.10253 0
-0.187895 3.8414 0
-0.155227 3.44091 0
0.132247 3.94574 0
0.229883 3.52413 0
-0.508037 3.73706 0
-0.540338 3.35769 0
-0.187895 3.8414 0
-0.155227 3.44091 0
-0.540338 3.35769 0
-0.572639 2.97832 0
-0.155227 3.44091 0
-0.122559 3.04042 0
-17.5076 1.51414 0
-17.0784 0.681977 0
-16.6573 1.91558 0
-16.3032 1.06099 0
-17.9368 2.34631 0
-17.5076 1.51414 0
-17.0114 2.77016 0
-16.6573 1.91558 0
-18.8622 1.92245 0
-18.3579 1.11271 0
-17.9368 2.34631 0
-17.5076 1.51414 0
-18.3579 1.11271 0
-17.8536 0.302965 0
-17.5076 1.51414 0
-17.0784 0.681977 0
-9.1475 3.89025 0
-8.85321 3.21356 0
-8.53017 4.21661 0
-8.08111 3.35552 0
-9.44179 4.56694 0
-9.1475 3.89025 0
-8.97923 5.0777 0
-8.53017 4.21661 0
-9.90434 4.05618 0
-9.76483 3.56389 0
-9.44179 4.56694 0
-9.1475 3.89025 0
-9.76483 3.56389 0
-9.62532 3.0716 0
-9.1475 3.89025 0
-8.85321 3.21356 0
-1.01078 -1.34214 0
-0.808254 -1.55814 0
-0.780048 -1.16849 0
-0.560799 -1.36436 0
-1.2133 -1.12613 0
-1.01078 -1.34214 0
-0.999296 -0.97261 0
-0.780048 -1.16849 0
-1.4273 -1.27964 0
-1.2415 -1.51578 0
-1.2133 -1.12613 0
-1.01078 -1.34214 0
-1.2415 -1.51578 0
-1.05571 -1.75193 0
-1.01078 -1.34214 0
-0.808254 -1.55814 0
-0.180357 4.8195 0
0.266355 4.96158 0
-0.33517 5.31195 0
0.142938 5.44057 0
0.266355 4.96158 0
0.713068 5.10366 0
0.142938 5.44057 0
0.621047 5.56919 0
0.142938 5.44057 0
0.621047 5.56919 0
0.0195212 5.91956 0
0.529026 6.03471 0
-0.33517 5.31195 0
0.142938 5.44057 0
-0.489983 5.8044 0
0.0195212 5.91956 0
-10.8957 1.81752 0
-10.8977 1.03469 0
-10.1796 1.79181 0
-10.149 1.04742 0
-10.8977 1.03469 0
-10.8997 0.251864 0
-10.149 1.04742 0
-10.1184 0.303019 0
-10.149 1.04742 0
-10.1184 0.303019 0
-9.4004 1.06014 0
-9.33723 0.354175 0
-10.1796 1.79181 0
-10.149 1.04742 0
-9.46356 1.76611 0
-9.4004 1.06014 0
-14.4732 4.40515 0
-13.5566 4.54022 0
-14.4648 5.30323 0
-13.3291 5.40771 0
-15.3898 4.27007 0
-14.4732 4.40515 0
-15.6006 5.19875 0
-14.4648 5.30323 0
-15.179 3.34139 0
-14.4816 3.50706 0
-15.3898 4.27007 0
-14.4732 4.40515 0
-14.4816 3.50706 0
-13.7842 3.67273 0
-14.4732 4.40515 0
-13.5566 4.54022 0
-5.8752 -0.227107 0
-5.69897 -0.757495 0
-5.31715 -0.0855973 0
-5.15964 -0.594901 0
-6.43325 -0.368616 0
-6.2383 -0.920089 0
-5.8752 -0.227107 0
-5.69897 -0.757495 0
-6.2383 -0.920089 0
-6.04335 -1.47156 0
-5.69897 -0.757495 0
-5.52273 -1.28788 0
-5.69897 -0.757495 0
-5.52273 -1.28788 0
-5.15964 -0.594901 0
-5.00212 -1.1042 0
24.3282 0.546063 0
23.0254 0.544711 0
24.2807 -0.781103 0
22.9008 -0.743829 0
24.2807 -0.781103 0
22.9008 -0.743829 0
24.2332 -2.10827 0
22.7763 -2.03237 0
25.6605 -0.818378 0
24.2807 -0.781103 0
25.6901 -2.18417 0
24.2332 -2.10827 0
25.6309 0.547415 0
24.3282 0.546063 0
25.6605 -0.818378 0
24.2807 -0.781103 0
-0.108487 6.50201 0
0.0195212 5.91956 0
0.501912 6.57023 0
0.529026 6.03471 0
-0.236495 7.08447 0
-0.108487 6.50201 0
0.474798 7.10574 0
0.501912 6.57023 0
-0.947789 7.0632 0
-0.718886 6.4338 0
-0.236495 7.08447 0
-0.108487 6.50201 0
-0.718886 6.4338 0
-0.489983 5.8044 0
-0.108487 6.50201 0
0.0195212 5.91956 0
16.986 14.5403 0
15.8721 13.975 0
17.3668 13.2424 0
16.0229 13.017 0
18.0999 15.1055 0
16.986 14.5403 0
18.7108 13.4678 0
17.3668 13.2424 0
17.4891 16.7433 0
16.6052 15.8381 0
18.0999 15.1055 0
16.986 14.5403 0
16.6052 15.8381 0
15.7212 14.9329 0
16.986 14.5403 0
15.8721 13.975 0
-2.59736 17.5569 0
-2.68983 16.4525 0
-1.45111 17.4404 0
-1.57722 16.3503 0
-2.50489 18.6614 0
-2.59736 17.5569 0
-1.325 18.5305 0
-1.45111 17.4404 0
-3.68477 18.7922 0
-3.74361 17.6734 0
-2.50489 18.6614 0
-2.59736 17.5569 0
-3.74361 17.6734 0
-3.80244 16.5546 0
-2.59736 17.5569 0
-2.68983 16.4525 0
2.02947 15.8647 0
0.817917 15.7136 0
2.33885 14.9087 0
1.30037 14.7161 0
2.33885 14.9087 0
1.30037 14.7161 0
2.64823 13.9527 0
1.78282 13.7185 0
3.37733 15.1013 0
2.33885 14.9087 0
3.51364 14.1869 0
2.64823 13.9527 0
3.24102 16.0157 0
2.02947 15.8647 0
3.37733 15.1013 0
2.33885 14.9087 0
-9.55622 6.15964 0
-9.75854 5.46765 0
-8.89968 5.94511 0
-8.97923 5.0777 0
-9.3539 6.85162 0
-9.55622 6.15964 0
-8.82012 6.81252 0
-8.89968 5.94511 0
-9.88768 6.89073 0
-10.2128 6.37417 0
-9.3539 6.85162 0
-9.55622 6.15964 0
-10.2128 6.37417 0
-10.5378 5.8576 0
-9.55622 6.15964 0
-9.75854 5.46765 0
43.2848 -22.7161 0
43.3003 -20.2938 0
41.0642 -22.788 0
41.0853 -20.3946 0
43.2693 -25.1383 0
43.2848 -22.7161 0
41.0432 -25.1813 0
41.0642 -22.788 0
45.4955 -25.0953 0
45.5054 -22.6441 0
43.2693 -25.1383 0
43.2848 -22.7161 0
45.5054 -22.6441 0
45.5152 -20.193 0
43.2848 -22.7161 0
43.3003 -20.2938 0
-0.586952 -2.86378 0
-1.02345 -2.79698 0
-0.578807 -3.27486 0
-1.00459 -3.24619 0
-0.578807 -3.27486 0
-1.00459 -3.24619 0
-0.570662 -3.68593 0
-0.985734 -3.69539 0
-0.15302 -3.30353 0
-0.578807 -3.27486 0
-0.15559 -3.67648 0
-0.570662 -3.68593 0
-0.150449 -2.93057 0
-0.586952 -2.86378 0
-0.15302 -3.30353 0
-0.578807 -3.27486 0
0.342548 -11.5035 0
1.1879 -11.5226 0
0.359388 -10.7018 0
1.16795 -10.7252 0
-0.502808 -11.4843 0
[...]
POINT_DATA 13776
SCALARS solution_0 double 1
LOOKUP_TABLE default
1.03834 1.03371 1.03911 1.03454 1.04319 1.03834 1.04372 1.03911 1.04252 1.03752 1.04319 1.03834 1.03752 1.0328 1.03834 1.03371 1.00065 1.00088 1.00104 1.00147 1.00044 1.00065 1.00069 1.00104 1.00016 1.00023 1.00044 1.00065 1.00023 1.00029 1.00065 1.00088 1.03262 1.03268 1.03385 1.03409 1.03252 1.03262 1.0336 1.03385 1.03152 1.0315 1.03252 1.03262 1.0315 1.03144 1.03262 1.03268 0.970074 0.971803 0.96467 0.966664 0.969351 0.970074 0.963851 0.96467 0.973858 0.974489 0.969351 0.970074 0.974489 0.975992 0.970074 0.971803 1.05991 1.05406 1.06154 1.05445 1.06566 1.05991 1.06843 1.06154 1.06309 1.05816 1.06566 1.05991 1.05816 1.05324 1.05991 1.05406 0.954403 0.960291 0.952083 0.958714 0.957674 0.962749 0.954403 0.960291 0.962749 0.967099 0.960291 0.965266 0.960291 0.965266 0.958714 0.964211 0.995934 0.993655 0.996012 0.993783 0.998123 0.995934 0.998106 0.996012 0.998235 0.996033 0.998123 0.995934 0.996033 0.993778 0.995934 0.993655 1.03901 1.03995 1.03781 1.03847 1.03818 1.03901 1.03715 1.03781 1.03974 1.0403 1.03818 1.03901 1.0403 1.04116 1.03901 1.03995 1.02069 1.02173 1.02267 1.02388 1.01981 1.02069 1.02157 1.02267 1.01806 1.0186 1.01981 1.02069 1.0186 1.01922 1.02069 1.02173 1.08625 1.09002 1.09551 1.10367 1.08248 1.08625 1.08942 1.09551 1.07377 1.07459 1.08248 1.08625 1.07459 1.0745 1.08625 1.09002 1.00009 1.00028 1.00006 1.00018 1.00016 1.00044 1.00009 1.00028 1.00044 1.00069 1.00028 1.00045 1.00028 1.00045 1.00018 1.00028 0.53673 0.494541 0.573965 0.51185 0.573965 0.51185 0.607897 0.528315 0.717807 0.573965 0.768873 0.607897 0.660987 0.53673 0.717807 0.573965 1.00453 1.00362 1.00456 1.00365 1.00446 1.00354 1.00453 1.00362 1.00354 1.00271 1.00362 1.00278 1.00362 1.00278 1.00365 1.00281 0.918404 0.919996 0.901778 0.903998 0.930995 0.932205 0.918404 0.919996 0.932205 0.9363 0.919996 0.925241 0.919996 0.925241 0.903998 0.910955 1.00117 1.00166 1.00124 1.00174 1.00106 1.00153 1.00117 1.00166 1.00153 1.00207 1.00166 1.00222 1.00166 1.00222 1.00174 1.00232 0.983659 0.983603 0.980628 0.980683 0.984223 0.983659 0.981036 0.980628 0.986823 0.986174 0.984223 0.983659 0.986174 0.986038 0.983659 0.983603 1.06302 1.07679 1.0761 1.09425 1.05353 1.06302 1.06223 1.0761 1.04178 1.0443 1.05353 1.06302 1.0443 1.0472 1.06302 1.07679 0.994595 0.994082 0.993639 0.993095 0.995142 0.994595 0.994242 0.993639 0.995952 0.99545 0.995142 0.994595 0.99545 0.994964 0.994595 0.994082 0.978709 0.975268 0.977927 0.972245 0.981893 0.978709 0.982602 0.977927 0.981667 0.979871 0.981893 0.978709 0.979871 0.978126 0.978709 0.975268 1.01572 1.03046 1.01697 1.00425 0.987936 1.01572 1.01193 1.01697 0.967007 0.998141 0.987936 1.01572 0.998141 1.01915 1.01572 1.03046 1.04197 1.04972 1.03575 1.04321 1.04972 1.05542 1.04321 1.04909 1.04321 1.04909 1.03819 1.04406 1.03575 1.04321 1.03111 1.03819 0.981036 0.980628 0.978176 0.977535 0.980628 0.980683 0.977535 0.977424 0.977535 0.977424 0.973859 0.973502 0.978176 0.977535 0.974831 0.973859 0.991804 0.990542 0.992612 0.991256 0.992938 0.991804 0.993827 0.992612 0.992097 0.991136 0.992938 0.991804 0.991136 0.990093 0.991804 0.990542 0.941827 0.942904 0.930995 0.932205 0.95039 0.951326 0.941827 0.942904 0.951326 0.954019 0.942904 0.94619 0.942904 0.94619 0.932205 0.9363 0.712837 0.704527 0.724872 0.714447 0.724872 0.714447 0.811862 0.802815 0.734302 0.724872 0.820253 0.811862 0.720699 0.712837 0.734302 0.724872 1.03386 1.03819 1.04031 1.04406 1.03073 1.03386 1.03732 1.04031 1.02352 1.02654 1.03073 1.03386 1.02654 1.03111 1.03386 1.03819 1.036 1.03669 1.03709 1.03763 1.03539 1.036 1.0366 1.03709 1.03409 1.03487 1.03539 1.036 1.03487 1.03576 1.036 1.03669 1.01576 1.01574 1.01773 1.01786 1.01571 1.01576 1.01757 1.01773 1.01393 1.01387 1.01571 1.01576 1.01387 1.01373 1.01576 1.01574 1.02503 1.0229 1.0267 1.02482 1.0267 1.02482 1.02863 1.02711 1.02829 1.0267 1.0299 1.02863 1.02687 1.02503 1.02829 1.0267 0.987408 0.985513 0.985771 0.982602 0.989461 0.987408 0.988952 0.985771 0.990005 0.988875 0.989461 0.987408 0.988875 0.987937 0.987408 0.985513 1.02682 1.02756 1.02704 1.02776 1.02628 1.02682 1.0265 1.02704 1.02606 1.02661 1.02628 1.02682 1.02661 1.02737 1.02682 1.02756 1.05956 1.03726 1.05701 1.03987 1.05701 1.03987 1.05407 1.04063 1.07346 1.05701 1.06728 1.05407 1.0809 1.05956 1.07346 1.05701 1.0307 1.03311 1.03241 1.03501 1.02805 1.0307 1.02953 1.03241 1.02675 1.0292 1.02805 1.0307 1.0292 1.03145 1.0307 1.03311 0.447266 0.481822 0.394248 0.410968 0.394248 0.410968 0.374202 0.36114 0.398614 0.394248 0.411727 0.374202 0.427352 0.447266 0.398614 0.394248 0.744314 0.594642 0.643752 0.531897 0.594642 0.4527 0.531897 0.470613 0.531897 0.470613 0.537684 0.54161 0.643752 0.531897 0.597974 0.537684 0.970948 0.979087 0.969239 0.975844 0.979087 0.985514 0.975844 0.981213 0.975844 0.981213 0.973919 0.97832 0.969239 0.975844 0.968604 0.973919 1.03874 1.04217 1.04153 1.04533 1.03483 1.03874 1.03713 1.04153 1.03288 1.03639 1.03483 1.03874 1.03639 1.03951 1.03874 1.04217 0.993078 0.992869 0.992144 0.99201 0.993386 0.993078 0.992344 0.992144 0.994315 0.993944 0.993386 0.993078 0.993944 0.993688 0.993078 0.992869 1.03425 1.03709 1.03639 1.03951 1.03108 1.03425 1.03288 1.03639 1.02953 1.03241 1.03108 1.03425 1.03241 1.03501 1.03425 1.03709 0.43951 0.59107 0.492679 0.680466 0.492679 0.680466 0.539797 0.754402 0.357313 0.492679 0.379815 0.539797 0.326782 0.43951 0.357313 0.492679 0.94055 0.996584 0.910262 0.968203 0.996584 1.03163 0.968203 1.00974 0.968203 1.00974 0.926876 0.969696 0.910262 0.968203 0.877257 0.926876 1.04274 1.03694 1.03968 1.03443 1.03694 1.03059 1.03443 1.02875 1.03443 1.02875 1.03235 1.02721 1.03968 1.03443 1.03713 1.03235 0.564794 0.648305 0.374253 0.516156 0.546623 0.564794 0.361517 0.374253 0.658859 0.671603 0.546623 0.564794 0.671603 0.722383 0.564794 0.648305 1.05353 1.06223 1.04026 1.05027 1.04026 1.05027 1.03088 1.04197 1.02632 1.04026 1.0157 1.03088 1.04178 1.05353 1.02632 1.04026 1.09477 1.05694 1.08763 1.02682 1.10589 1.09477 1.11081 1.08763 1.09949 1.09518 1.10589 1.09477 1.09518 1.07243 1.09477 1.05694 0.993794 0.992867 0.992518 0.991632 0.994877 0.993794 0.993778 0.992518 0.995811 0.994865 0.994877 0.993794 0.994865 0.99395 0.993794 0.992867 1.0041 1.0042 1.00264 1.00239 1.00397 1.0041 1.00281 1.00264 1.00505 1.00551 1.00397 1.0041 1.00551 1.00604 1.0041 1.0042 0.266232 0.258996 0.397872 0.356207 0.290081 0.266232 0.469353 0.397872 0.121815 0.154308 0.290081 0.266232 0.154308 0.185659 0.266232 0.258996 1.04889 1.04919 1.05406 1.05445 1.04839 1.04889 1.05324 1.05406 1.04372 1.04424 1.04839 1.04889 1.04424 1.04471 1.04889 1.04919 0.762477 0.823098 0.837276 0.892144 0.823098 0.877165 0.892144 0.937821 0.892144 0.937821 0.955546 0.988575 0.837276 0.892144 0.911594 0.955546 0.326782 0.266007 0.286418 0.225497 0.266007 0.242673 0.225497 0.212445 0.225497 0.212445 0.180422 0.185659 0.286418 0.225497 0.242395 0.180422 1.03752 1.03781 1.0328 1.034 1.04252 1.0415 1.03752 1.03781 1.0415 1.04034 1.03781 1.03771 1.03781 1.03771 1.034 1.03478 1.045 1.02999 1.04165 1.01531 1.04878 1.045 1.04999 1.04165 1.04715 1.04553 1.04878 1.045 1.04553 1.03829 1.045 1.02999 0.609191 0.715257 0.65793 0.758054 0.566774 0.675647 0.609191 0.715257 0.675647 0.786529 0.715257 0.81817 0.715257 0.81817 0.758054 0.85194 0.543713 0.368645 0 0 0.756758 0.543713 0 0 0.956413 0.866653 0.756758 0.543713 0.866653 0.702819 0.543713 0.368645 1.05694 0.972247 1.02682 0.910552 1.07243 1.01258 1.05694 0.972247 1.01258 0.909113 0.972247 0.843207 0.972247 0.843207 0.910552 0.754402 0.643 0.576461 0.55497 0.434897 0.710496 0.672015 0.643 0.576461 0.672015 0.658859 0.576461 0.546623 0.576461 0.546623 0.434897 0.361517 1.05654 1.05219 1.05816 1.05324 1.06091 1.05654 1.06309 1.05816 1.05884 1.05492 1.06091 1.05654 1.05492 1.05103 1.05654 1.05219 1.00098 1.00109 1.00066 1.00081 1.00085 1.00098 1.00052 1.00066 1.0012 1.0013 1.00085 1.00098 1.0013 1.00136 1.00098 1.00109 0.748224 0.59107 0.646559 0.526731 0.646559 0.526731 0.525359 0.456342 0.778377 0.646559 0.610995 0.525359 0.900252 0.748224 0.778377 0.646559 0.997904 0.998575 0.998155 0.998749 0.998155 0.998749 0.998459 0.998977 0.997473 0.998155 0.997841 0.998459 0.997123 0.997904 0.997473 0.998155 0.940645 0.934582 0.949483 0.946371 0.949483 0.946371 0.95777 0.95719 0.953517 0.949483 0.95991 0.95777 0.946627 0.940645 0.953517 0.949483 0.499585 0.810168 0.363385 0.659349 0.702819 0.968384 0.499585 0.810168 0.968384 1.08404 0.810168 0.996598 0.810168 0.996598 0.659349 0.885301 0.956432 0.932497 0.979644 0.959705 0.972341 0.956432 0.992364 0.979644 0.959172 0.941763 0.972341 0.956432 0.941763 0.916362 0.956432 0.932497 0.988523 0.986823 0.988429 0.985927 0.988429 0.985927 0.988757 0.985557 0.990542 0.988429 0.991256 0.988757 0.990093 0.988523 0.990542 0.988429 1.05224 1.05761 1.05708 1.06324 1.04592 1.05224 1.04981 1.05708 1.04274 1.04833 1.04592 1.05224 1.04833 1.05307 1.05224 1.05761 1.00877 1.01127 1.00947 1.01191 1.01127 1.01395 1.01191 1.01449 1.01191 1.01449 1.01264 1.01501 1.00947 1.01191 1.01028 1.01264 0.99545 0.996072 0.994964 0.995573 0.995952 0.996556 0.99545 0.996072 0.996556 0.997123 0.996072 0.996646 0.996072 0.996646 0.995573 0.996128 0.401227 0.374202 0.342338 0.36114 0.495405 0.401227 0.379815 0.342338 0.60405 0.479433 0.495405 0.401227 0.479433 0.411727 0.401227 0.374202 1.02511 1.02584 1.02578 1.02645 1.02578 1.02645 1.02671 1.02729 1.02495 1.02578 1.02597 1.02671 1.0242 1.02511 1.02495 1.02578 1.02981 1.0328 1.03152 1.034 1.03152 1.034 1.03285 1.03478 1.02943 1.03152 1.03113 1.03285 1.0274 1.02981 1.02943 1.03152 0.995233 0.991979 0.991981 0.989004 0.991979 0.988684 0.989004 0.98624 0.989004 0.98624 0.985282 0.983391 0.991981 0.989004 0.987667 0.985282 1.02031 1.02177 1.02084 1.02253 1.02084 1.02253 1.02164 1.02368 1.01901 1.02084 1.01947 1.02164 1.01872 1.02031 1.01901 1.02084 0.998745 0.997534 0.99865 0.997238 0.998884 0.997838 0.998745 0.997534 0.997838 0.996745 0.997534 0.996286 0.997534 0.996286 0.997238 0.995811 1.03053 1.03151 1.03085 1.03185 1.02962 1.03053 1.02993 1.03085 1.02933 1.03021 1.02962 1.03053 1.03021 1.03118 1.03053 1.03151 1.03359 1.03363 1.0355 1.03544 1.03339 1.03359 1.03541 1.0355 1.03153 1.03183 1.03339 1.03359 1.03183 1.03197 1.03359 1.03363 0.915206 0.923423 0.869822 0.861606 0.916481 0.915206 0.882007 0.869822 0.947766 0.952687 0.916481 0.915206 0.952687 0.967007 0.915206 0.923423 0.487576 0.521786 0.427352 0.447266 0.566774 0.609191 0.487576 0.521786 0.609191 0.65793 0.521786 0.565997 0.521786 0.565997 0.447266 0.481822 0.999803 0.999801 1.00029 1.00038 0.999285 0.999179 0.999803 0.999801 0.999179 0.999055 0.999801 0.999787 0.999801 0.999787 1.00038 1.00047 1.05391 1.05961 1.06731 1.06508 1.01323 1.03828 1.05391 1.05961 1.03828 1.05111 1.05961 1.06052 1.05961 1.06052 1.06508 1.06222 1.02632 1.0157 1.02272 1.00727 1.02272 1.00727 1.01561 0.992364 1.0443 1.02272 1.0472 1.01561 1.04178 1.02632 1.0443 1.02272 1.00928 1.0114 1.00877 1.01127 1.0095 1.01134 1.00928 1.0114 1.01134 1.01335 1.0114 1.01368 1.0114 1.01368 1.01127 1.01395 1.00343 1.00263 1.00354 1.00271 1.00432 1.00343 1.00446 1.00354 1.0041 1.00324 1.00432 1.00343 1.00324 1.00249 1.00343 1.00263 0.791632 0.915119 0.865186 0.967418 0.915119 1.00764 0.967418 1.03511 0.967418 1.03511 1.00283 1.05061 0.865186 0.967418 0.921773 1.00283 1.092 1.08017 1.09518 1.07243 1.09249 1.092 1.09949 1.09518 1.08627 1.08752 1.09249 1.092 1.08752 1.08182 1.092 1.08017 0.992537 0.991923 0.991298 0.990601 0.993228 0.992537 0.992097 0.991298 0.994242 0.993639 0.993228 0.992537 0.993639 0.993095 0.992537 0.991923 1.0272 1.02743 1.02768 1.02788 1.02768 1.02788 1.02836 1.02853 1.02738 1.02768 1.02809 1.02836 1.02687 1.0272 1.02738 1.02768 0.999263 1.0005 0.999196 1.0008 0.998028 0.999263 0.997665 0.999196 0.998362 0.999365 0.998028 0.999263 0.999365 1.00033 0.999263 1.0005 1.02237 1.02455 1.03726 1.03987 1.01071 1.01217 1.02237 1.02455 1.01217 1.01334 1.02455 1.02599 1.02455 1.02599 1.03987 1.04063 0.989133 0.986459 0.989961 0.987937 0.991249 0.989133 0.991632 0.989961 0.991256 0.988757 0.991249 0.989133 0.988757 0.985557 0.989133 0.986459 1.02785 1.0283 1.02921 1.02952 1.02723 1.02785 1.02874 1.02921 1.02597 1.02671 1.02723 1.02785 1.02671 1.02729 1.02785 1.0283 1.04652 1.04662 1.04855 1.04876 1.04621 1.04652 1.0481 1.04855 1.04446 1.04467 1.04621 1.04652 1.04467 1.04466 1.04652 1.04662 0.810561 0.922657 0.840334 0.960927 0.922657 1.01173 0.960927 1.02474 0.960927 1.02474 0.994296 1.03197 0.840334 0.960927 0.894026 0.994296 0.956413 1.06375 0.866653 1.04551 1.06375 1.09839 1.04551 1.10902 1.04551 1.10902 0.968384 1.08404 0.866653 1.04551 0.702819 0.968384 0.738656 0.823469 0.655919 0.717479 0.823469 0.890318 0.717479 0.772703 0.717479 0.772703 0.623645 0.653574 0.655919 0.717479 0.593714 0.623645 1.02028 1.01983 1.02208 1.02183 1.01983 1.01947 1.02183 1.02164 1.02183 1.02164 1.02379 1.02368 1.02208 1.02183 1.02388 1.02379 1.00877 1.00947 1.00703 1.00758 1.00947 1.01028 1.00758 1.00819 1.00758 1.00819 1.00551 1.00604 1.00703 1.00758 1.00505 1.00551 1.03141 1.03076 1.03146 1.03076 1.03076 1.03026 1.03076 1.03021 1.03076 1.03021 1.0307 1.0301 1.03146 1.03076 1.03147 1.0307 1.11491 1.11384 1.03439 1.07111 1.11384 1.11081 1.07111 1.08763 1.07111 1.08763 0.978069 1.02682 1.03439 1.07111 0.900252 0.978069 1.04274 1.03968 1.04833 1.0446 1.03968 1.03713 1.0446 1.04153 1.0446 1.04153 1.04882 1.04533 1.04833 1.0446 1.05307 1.04882 0.784203 0.745471 0.938935 0.892254 0.647855 0.627565 0.784203 0.745471 0.627565 0.606692 0.745471 0.700926 0.745471 0.700926 0.892254 0.837434 1.00615 1.00314 1.00325 1.00067 1.00826 1.00502 1.00615 1.00314 1.00502 1.00211 1.00314 1.00054 1.00314 1.00054 1.00067 0.99853 0.999179 0.998527 0.999055 0.998279 0.999285 0.998745 0.999179 0.998527 0.998745 0.998176 0.998527 0.997839 0.998527 0.997839 0.998279 0.997461 0.998405 0.998865 1.00034 1.00066 1.00034 1.00066 1.00216 1.00233 1.00011 1.00034 1.00204 1.00216 0.998106 0.998405 1.00011 1.00034 1.00267 1.00344 1.00167 1.00226 1.00167 1.00226 1.0005 1.0008 1.00126 1.00167 1.00033 1.0005 1.00208 1.00267 1.00126 1.00167 0.998917 0.999286 0.998633 0.999099 0.998489 0.998917 0.998085 0.998633 0.998881 0.999198 0.998489 0.998917 0.999198 0.999476 0.998917 0.999286 1.03277 1.0321 1.03433 1.03378 1.03326 1.03277 1.03471 1.03433 1.03196 1.03137 1.03326 1.03277 1.03137 1.0306 1.03277 1.0321 1.03177 1.03094 1.0337 1.03291 1.03094 1.0299 1.03291 1.03188 1.03291 1.03188 1.03515 1.03415 1.0337 1.03291 1.03584 1.03515 0.856782 0.882514 0.858063 0.88315 0.862174 0.888688 0.856782 0.882514 0.888688 0.907723 0.882514 0.901512 0.882514 0.901512 0.88315 0.901778 1.03046 1.04509 1.00425 1.03078 1.01915 1.03883 1.03046 1.04509 1.03883 1.0579 1.04509 1.06357 1.04509 1.06357 1.03078 1.06007 0.985927 0.983678 0.985557 0.983528 0.986823 0.984223 0.985927 0.983678 0.984223 0.981036 0.983678 0.981059 0.983678 0.981059 0.983528 0.98134 0.932618 0.942397 0.939825 0.949983 0.939825 0.949983 0.946371 0.95719 0.929829 0.939825 0.934582 0.946371 0.925172 0.932618 0.929829 0.939825 1.12119 1.1324 1.12646 1.13008 1.12646 1.13008 1.10902 1.08404 1.10581 1.12646 1.09839 1.10902 1.10067 1.12119 1.10581 1.12646 0.758103 0.659139 0.909113 0.843207 0.60405 0.495405 0.758103 0.659139 0.495405 0.379815 0.659139 0.539797 0.659139 0.539797 0.843207 0.754402 1.01583 1.01475 1.02231 1.02092 1.02231 1.02092 1.02875 1.02721 1.02423 1.02231 1.03059 1.02875 1.01751 1.01583 1.02423 1.02231 0.99262 0.993283 0.991408 0.99221 0.993688 0.994245 0.99262 0.993283 0.994245 0.994947 0.993283 0.994091 0.993283 0.994091 0.99221 0.993126 1.01395 1.01616 1.01449 1.01679 1.01616 1.01842 1.01679 1.01912 1.01679 1.01912 1.01743 1.01985 1.01449 1.01679 1.01501 1.01743 0.872947 0.888564 0.866009 0.886705 0.888564 0.901298 0.886705 0.902523 0.886705 0.902523 0.888688 0.907723 0.866009 0.886705 0.862174 0.888688 1.02049 1.01988 1.02464 1.02467 1.02083 1.02049 1.02448 1.02464 1.01742 1.01662 1.02083 1.02049 1.01662 1.01547 1.02049 1.01988 0.583578 0.562195 0.660429 0.619059 0.660429 0.619059 0.793083 0.742121 0.700926 0.660429 0.837434 0.793083 0.606692 0.583578 0.700926 0.660429 0.870281 0.846608 0.850134 0.817692 0.88892 0.870281 0.873994 0.850134 0.908626 0.896027 0.88892 0.870281 0.896027 0.882007 0.870281 0.846608 1.01327 1.01356 1.011 1.01146 1.01356 1.01373 1.01146 1.01177 1.01146 1.01177 1.00956 1.00998 1.011 1.01146 1.00897 1.00956 0.998085 0.998633 0.9976 0.998247 0.998633 0.999099 0.998247 0.998821 0.998247 0.998821 0.997889 0.998575 0.9976 0.998247 0.99711 0.997889 1.0113 1.0117 1.00882 1.00916 1.0117 1.01216 1.00916 1.00957 1.00916 1.00957 1.00657 1.00691 1.00882 1.00916 1.00632 1.00657 1.0319 1.03369 1.03361 1.03552 1.02989 1.0319 1.03145 1.03361 1.0285 1.0304 1.02989 1.0319 1.0304 1.03209 1.0319 1.03369 1.03282 1.03113 1.03507 1.03285 1.03507 1.03285 1.03771 1.03478 1.03695 1.03507 1.04034 1.03771 1.03415 1.03282 1.03695 1.03507 0.991981 0.987667 0.996224 0.993279 0.996224 0.993279 1.00054 0.99853 0.998527 0.996224 1.00211 1.00054 0.995233 0.991981 0.998527 0.996224 0.936768 0.921089 0.943985 0.931413 0.953625 0.936768 0.95791 0.943985 0.949652 0.928824 0.953625 0.936768 0.928824 0.908626 0.936768 0.921089 1.03748 1.03853 1.03712 1.03766 1.03853 1.03974 1.03766 1.03818 1.03766 1.03818 1.03678 1.03715 1.03712 1.03766 1.03648 1.03678 1.03188 1.03057 1.03415 1.03282 1.0299 1.02863 1.03188 1.03057 1.02863 1.02711 1.03057 1.02897 1.03057 1.02897 1.03282 1.03113 1.07424 1.07762 1.07036 1.07098 1.07183 1.07556 1.07424 1.07762 1.07556 1.07975 1.07762 1.08107 1.07762 1.08107 1.07098 1.07046 1.06834 1.07183 1.07079 1.07424 1.07079 1.07424 1.06895 1.07036 1.06751 1.07079 1.06731 1.06895 1.06523 1.06834 1.06751 1.07079 0.998459 0.998977 0.998663 0.999116 0.998663 0.999116 0.998888 0.999272 0.998129 0.998663 0.998438 0.998888 0.997841 0.998459 0.998129 0.998663 1.07377 1.07102 1.06743 1.06424 1.07102 1.06843 1.06424 1.06154 1.06424 1.06154 1.05761 1.05445 1.06743 1.06424 1.06147 1.05761 0.987888 0.972341 1.00727 0.992364 0.99806 0.987888 1.0157 1.00727 0.98434 0.973954 0.99806 0.987888 0.973954 0.959172 0.987888 0.972341 0.956392 0.894026 1.01739 0.994296 1.01739 0.994296 1.03496 1.03197 1.03014 1.01739 1.03577 1.03496 0.999351 0.956392 1.03014 1.01739 0.987667 0.985282 0.983568 0.980923 0.985282 0.983391 0.980923 0.979035 0.980923 0.979035 0.975485 0.973685 0.983568 0.980923 0.97832 0.975485 1.02233 1.02386 1.0229 1.02482 1.02157 1.02267 1.02233 1.02386 1.02267 1.02388 1.02386 1.02562 1.02386 1.02562 1.02482 1.02711 1.00465 1.00624 1.00531 1.00672 1.00331 1.00465 1.00411 1.00531 1.00218 1.00371 1.00331 1.00465 1.00371 1.00556 1.00465 1.00624 0.942397 0.926164 0.946999 0.929928 0.926164 0.902732 0.929928 0.905462 0.929928 0.905462 0.941763 0.916362 0.946999 0.929928 0.959172 0.941763 1.01323 1.05391 1.00961 1.05387 1.05391 1.06731 1.05387 1.06895 1.05387 1.06895 1.05271 1.07036 1.00961 1.05387 1.00918 1.05271 1.0965 1.09084 1.11231 1.08553 1.09084 0.997183 1.08553 0.962114 1.08553 0.962114 1.05902 0.914134 1.11231 1.08553 1.10712 1.05902 0.968998 0.98683 0.970385 0.990537 0.970385 0.990537 0.974992 0.997358 0.947312 0.970385 0.947766 0.974992 0.949652 0.968998 0.947312 0.970385 1.04109 1.04113 1.0427 1.04281 1.04113 1.04098 1.04281 1.04273 1.04281 1.04273 1.04467 1.04466 1.0427 1.04281 1.04446 1.04467 0.995566 0.999947 0.999842 1.00392 0.999947 1.00534 1.00392 1.00886 1.00392 1.00886 1.00702 1.01152 0.999842 1.00392 1.00325 1.00702 1.03374 1.03368 1.03512 1.03502 1.03372 1.03374 1.03512 1.03512 1.03242 1.03247 1.03372 1.03374 1.03247 1.03244 1.03374 1.03368 1.03077 1.0403 1.00761 1.0362 1.00428 1.03077 0.938935 1.00761 1.03829 1.04178 1.00428 1.03077 1.04178 1.04245 1.03077 1.0403 0.829033 0.834264 0.788333 0.795486 0.858063 0.861975 0.829033 0.834264 0.861975 0.873994 0.834264 0.850134 0.834264 0.850134 0.795486 0.817692 0.838659 0.926876 0.887266 0.969696 0.72957 0.838659 0.768873 0.887266 0.698713 0.79222 0.72957 0.838659 0.79222 0.877257 0.838659 0.926876 1.10759 1.0907 1