# vtk DataFile Version 3.0
#This file was generated by the deal.II library on 2020/11/21 at 20:43:06
ASCII
DATASET UNSTRUCTURED_GRID

POINTS 12320 double
-17.065 -16.8876 0
-16.9513 -18.2883 0
-15.6121 -16.861 0
-15.464 -18.2609 0
-17.1788 -15.487 0
-17.065 -16.8876 0
-15.7602 -15.4612 0
-15.6121 -16.861 0
-18.5973 -15.5128 0
-18.518 -16.9143 0
-17.1788 -15.487 0
-17.065 -16.8876 0
-18.518 -16.9143 0
-18.4386 -18.3157 0
-17.065 -16.8876 0
-16.9513 -18.2883 0
-22.54 4.69438 0
-21.1507 4.81763 0
-22.6967 6.12252 0
-21.3129 6.18082 0
-23.9293 4.57113 0
-22.54 4.69438 0
-24.0804 6.06423 0
-22.6967 6.12252 0
-23.7782 3.07803 0
-22.3833 3.26624 0
-23.9293 4.57113 0
-22.54 4.69438 0
-22.3833 3.26624 0
-20.9885 3.45445 0
-22.54 4.69438 0
-21.1507 4.81763 0
1.61272 1.56241 0
1.40186 1.23421 0
1.96419 1.34834 0
1.67357 1.04038 0
1.82357 1.89061 0
1.61272 1.56241 0
2.25481 1.6563 0
1.96419 1.34834 0
1.39234 2.12491 0
1.26124 1.77647 0
1.82357 1.89061 0
1.61272 1.56241 0
1.26124 1.77647 0
1.13015 1.42803 0
1.61272 1.56241 0
1.40186 1.23421 0
-11.6468 -11.121 0
-10.7215 -11.1987 0
-11.7628 -10.1411 0
-10.875 -10.0387 0
-12.5721 -11.0433 0
-11.6468 -11.121 0
-12.6505 -10.2435 0
-11.7628 -10.1411 0
-12.4937 -11.843 0
-11.5308 -12.1008 0
-12.5721 -11.0433 0
-11.6468 -11.121 0
-11.5308 -12.1008 0
-10.568 -12.3587 0
-11.6468 -11.121 0
-10.7215 -11.1987 0
-2.50326 7.11325 0
-3.13491 7.14603 0
-2.54427 6.47215 0
-3.14696 6.48101 0
-1.87161 7.08046 0
-2.50326 7.11325 0
-1.94158 6.46329 0
-2.54427 6.47215 0
-1.80165 7.69764 0
-2.46226 7.75434 0
-1.87161 7.08046 0
-2.50326 7.11325 0
-2.46226 7.75434 0
-3.12286 7.81104 0
-2.50326 7.11325 0
-3.13491 7.14603 0
3.5911 9.16351 0
3.51861 8.35732 0
4.37179 9.07633 0
4.27849 8.2823 0
3.66359 9.9697 0
3.5911 9.16351 0
4.46509 9.87036 0
4.37179 9.07633 0
2.86209 10.069 0
2.8104 9.25069 0
3.66359 9.9697 0
3.5911 9.16351 0
2.8104 9.25069 0
2.75872 8.43233 0
3.5911 9.16351 0
3.51861 8.35732 0
0.170088 -4.0904 0
0.640808 -4.29709 0
0.432975 -3.65072 0
0.925603 -3.81672 0
-0.300631 -3.8837 0
0.170088 -4.0904 0
-0.0596535 -3.48471 0
0.432975 -3.65072 0
-0.541609 -4.28269 0
-0.0927983 -4.53008 0
-0.300631 -3.8837 0
0.170088 -4.0904 0
-0.0927983 -4.53008 0
0.356012 -4.77746 0
0.170088 -4.0904 0
0.640808 -4.29709 0
4.80043 1.28778 0
5.09724 1.8163 0
4.29404 1.6079 0
4.52716 2.1151 0
4.50361 0.759252 0
4.80043 1.28778 0
4.06092 1.10069 0
4.29404 1.6079 0
4.9463 0.417816 0
5.30681 0.967657 0
4.50361 0.759252 0
4.80043 1.28778 0
5.30681 0.967657 0
5.66731 1.5175 0
4.80043 1.28778 0
5.09724 1.8163 0
4.31259 -0.604956 0
3.80413 -0.483187 0
4.32755 -1.0301 0
3.73488 -0.982184 0
4.29763 -0.179808 0
3.87339 0.0158089 0
4.31259 -0.604956 0
3.80413 -0.483187 0
3.87339 0.0158089 0
3.44914 0.211426 0
3.80413 -0.483187 0
3.29567 -0.361419 0
3.80413 -0.483187 0
3.29567 -0.361419 0
3.73488 -0.982184 0
3.14221 -0.934264 0
-12.1495 8.87283 0
-13.0894 8.91204 0
-11.9664 7.67551 0
-13.0672 7.92355 0
-12.3326 10.0702 0
-13.1116 9.90053 0
-12.1495 8.87283 0
-13.0894 8.91204 0
-13.1116 9.90053 0
-13.8906 9.73091 0
-13.0894 8.91204 0
-14.0293 8.95125 0
-13.0894 8.91204 0
-14.0293 8.95125 0
-13.0672 7.92355 0
-14.168 8.1716 0
-1.77835 -7.04828 0
-2.22287 -7.59863 0
-1.20658 -7.49946 0
-1.63905 -8.10497 0
-1.33383 -6.49793 0
-1.77835 -7.04828 0
-0.774116 -6.89396 0
-1.20658 -7.49946 0
-1.89354 -6.1019 0
-2.35012 -6.59709 0
-1.33383 -6.49793 0
-1.77835 -7.04828 0
-2.35012 -6.59709 0
-2.80669 -7.09229 0
-1.77835 -7.04828 0
-2.22287 -7.59863 0
-6.93893 -4.74762 0
-7.57474 -4.97633 0
-6.64048 -5.39381 0
-7.28542 -5.67246 0
-6.64048 -5.39381 0
-7.28542 -5.67246 0
-6.34202 -6.03999 0
-6.99609 -6.36859 0
-5.99554 -5.11515 0
-6.64048 -5.39381 0
-5.68795 -5.71139 0
-6.34202 -6.03999 0
-6.30312 -4.51891 0
-6.93893 -4.74762 0
-5.99554 -5.11515 0
-6.64048 -5.39381 0
5.7914 3.86699 0
5.0731 4.08887 0
5.58143 3.12746 0
4.90834 3.3642 0
6.5097 3.64512 0
5.7914 3.86699 0
6.25452 2.89072 0
5.58143 3.12746 0
6.76487 4.39951 0
6.00137 4.60652 0
6.5097 3.64512 0
5.7914 3.86699 0
6.00137 4.60652 0
5.23786 4.81353 0
5.7914 3.86699 0
5.0731 4.08887 0
-2.72766 1.94885 0
-2.40102 2.19259 0
-3.0499 2.37616 0
-2.58199 2.62143 0
-3.0499 2.37616 0
-2.58199 2.62143 0
-3.37214 2.80347 0
-2.76297 3.05026 0
-3.5178 2.13089 0
-3.0499 2.37616 0
-3.9813 2.55667 0
-3.37214 2.80347 0
-3.05429 1.7051 0
-2.72766 1.94885 0
-3.5178 2.13089 0
-3.0499 2.37616 0
24.4029 5.17621 0
25.95 4.0829 0
25.5892 6.58553 0
27.4696 5.44531 0
22.8557 6.26951 0
24.4029 5.17621 0
23.7087 7.72575 0
25.5892 6.58553 0
22.0028 4.81328 0
23.2166 3.76689 0
22.8557 6.26951 0
24.4029 5.17621 0
23.2166 3.76689 0
24.4304 2.7205 0
24.4029 5.17621 0
25.95 4.0829 0
4.31259 -0.604956 0
4.32755 -1.0301 0
4.90213 -0.444047 0
5.18229 -1.0071 0
4.90213 -0.444047 0
5.18229 -1.0071 0
5.49167 -0.283139 0
6.03703 -0.984093 0
4.62197 0.119004 0
4.90213 -0.444047 0
4.9463 0.417816 0
5.49167 -0.283139 0
4.29763 -0.179808 0
4.31259 -0.604956 0
4.62197 0.119004 0
4.90213 -0.444047 0
-0.146369 -1.0246 0
0.0702125 -1.11587 0
-0.0599457 -0.858023 0
0.145606 -0.933265 0
-0.232792 -1.19118 0
-0.00518096 -1.29848 0
-0.146369 -1.0246 0
0.0702125 -1.11587 0
-0.00518096 -1.29848 0
0.22243 -1.40579 0
0.0702125 -1.11587 0
0.286794 -1.20715 0
0.0702125 -1.11587 0
0.286794 -1.20715 0
0.145606 -0.933265 0
0.351157 -1.00851 0
-4.13627 14.8846 0
-3.20346 14.7025 0
-3.72549 16.0873 0
-2.91736 15.6509 0
-3.20346 14.7025 0
-2.27064 14.5205 0
-2.91736 15.6509 0
-2.10922 15.2144 0
-2.91736 15.6509 0
-2.10922 15.2144 0
-2.63125 16.5992 0
-1.94779 15.9084 0
-3.72549 16.0873 0
-2.91736 15.6509 0
-3.31472 17.2901 0
-2.63125 16.5992 0
22.404 -1.54474 0
23.367 -2.68205 0
23.6417 -0.717936 0
24.8951 -1.9617 0
21.4409 -0.407436 0
22.404 -1.54474 0
22.3882 0.52583 0
23.6417 -0.717936 0
20.4937 -1.3407 0
21.1663 -2.37155 0
21.4409 -0.407436 0
22.404 -1.54474 0
21.1663 -2.37155 0
21.8389 -3.4024 0
22.404 -1.54474 0
23.367 -2.68205 0
-12.0904 4.56424 0
-13.1499 4.35298 0
-12.0147 3.5623 0
-13.0128 3.25131 0
-13.1499 4.35298 0
-14.2095 4.14172 0
-13.0128 3.25131 0
-14.011 2.94031 0
-13.0128 3.25131 0
-14.011 2.94031 0
-12.8757 2.14963 0
-13.8124 1.73891 0
-12.0147 3.5623 0
-13.0128 3.25131 0
-11.9389 2.56035 0
-12.8757 2.14963 0
-14.4973 -1.23455 0
-15.4102 -1.14249 0
-14.5871 -2.09419 0
-15.501 -2.04948 0
-14.4074 -0.374916 0
-15.3193 -0.235495 0
-14.4973 -1.23455 0
-15.4102 -1.14249 0
-15.3193 -0.235495 0
-16.2312 -0.0960747 0
-15.4102 -1.14249 0
-16.3231 -1.05043 0
-15.4102 -1.14249 0
-16.3231 -1.05043 0
-15.501 -2.04948 0
-16.4149 -2.00478 0
-22.8325 11.8158 0
-22.8236 10.3856 0
-21.4198 11.769 0
-21.4198 10.3575 0
-24.2451 11.8627 0
-24.2275 10.4137 0
-22.8325 11.8158 0
-22.8236 10.3856 0
-24.2275 10.4137 0
-24.2099 8.96483 0
-22.8236 10.3856 0
-22.8148 8.95541 0
-22.8236 10.3856 0
-22.8148 8.95541 0
-21.4198 10.3575 0
-21.4198 8.94599 0
-11.0922 9.17528 0
-12.1495 8.87283 0
-10.8837 8.07528 0
-11.9664 7.67551 0
-10.035 9.47773 0
-11.0922 9.17528 0
-9.80091 8.47506 0
-10.8837 8.07528 0
-10.269 10.4804 0
-11.3008 10.2753 0
-10.035 9.47773 0
-11.0922 9.17528 0
-11.3008 10.2753 0
-12.3326 10.0702 0
-11.0922 9.17528 0
-12.1495 8.87283 0
1.01374 2.24861 0
1.39234 2.12491 0
1.10237 2.66246 0
1.5031 2.5488 0
1.10237 2.66246 0
1.5031 2.5488 0
1.191 3.07631 0
1.61387 2.97269 0
0.701644 2.77613 0
1.10237 2.66246 0
0.76814 3.17994 0
1.191 3.07631 0
0.635148 2.37232 0
1.01374 2.24861 0
0.701644 2.77613 0
1.10237 2.66246 0
17.485 5.80005 0
16.8825 4.58789 0
18.6896 5.18894 0
18.0117 3.96536 0
18.0874 7.01222 0
17.485 5.80005 0
19.3675 6.41253 0
18.6896 5.18894 0
16.8073 7.6119 0
16.2803 6.41116 0
18.0874 7.01222 0
17.485 5.80005 0
16.2803 6.41116 0
15.7533 5.21042 0
17.485 5.80005 0
16.8825 4.58789 0
43.3142 -22.7555 0
43.3354 -20.351 0
41.1074 -22.8355 0
41.1375 -20.4638 0
43.293 -25.16 0
43.3142 -22.7555 0
41.0773 -25.2073 0
41.1074 -22.8355 0
45.5086 -25.1128 0
45.521 -22.6755 0
43.293 -25.16 0
43.3142 -22.7555 0
45.521 -22.6755 0
45.5333 -20.2382 0
43.3142 -22.7555 0
43.3354 -20.351 0
0.459924 1.39764 0
0.163872 1.44661 0
0.411125 1.11784 0
0.143018 1.15955 0
0.508724 1.67744 0
0.184726 1.73368 0
0.459924 1.39764 0
0.163872 1.44661 0
0.184726 1.73368 0
-0.139272 1.78992 0
0.163872 1.44661 0
-0.13218 1.49558 0
0.163872 1.44661 0
-0.13218 1.49558 0
0.143018 1.15955 0
-0.125089 1.20125 0
-16.3231 -1.05043 0
-17.2986 -0.874468 0
-16.4149 -2.00478 0
-17.6318 -1.74455 0
-16.2312 -0.0960747 0
-16.9654 -0.00438669 0
-16.3231 -1.05043 0
-17.2986 -0.874468 0
-16.9654 -0.00438669 0
-17.6996 0.0873013 0
-17.2986 -0.874468 0
-18.2742 -0.69851 0
-17.2986 -0.874468 0
-18.2742 -0.69851 0
-17.6318 -1.74455 0
-18.8487 -1.48432 0
7.70551 8.728 0
7.59057 7.79818 0
8.67126 8.58884 0
8.51966 7.61618 0
8.67126 8.58884 0
8.51966 7.61618 0
9.63701 8.44968 0
9.44874 7.43417 0
8.82287 9.5615 0
8.67126 8.58884 0
9.82529 9.46519 0
9.63701 8.44968 0
7.82045 9.65782 0
7.70551 8.728 0
8.82287 9.5615 0
8.67126 8.58884 0
-10.568 -12.3587 0
-9.4299 -11.7943 0
-10.7215 -11.1987 0
-9.73225 -10.7819 0
-9.4299 -11.7943 0
-8.29184 -11.2298 0
-9.73225 -10.7819 0
-8.743 -10.3652 0
-9.73225 -10.7819 0
-8.743 -10.3652 0
-10.0346 -9.76962 0
-9.19415 -9.50053 0
-10.7215 -11.1987 0
-9.73225 -10.7819 0
-10.875 -10.0387 0
-10.0346 -9.76962 0
12.0358 0.836617 0
11.1918 1.39808 0
11.4778 -0.0174929 0
10.68 0.561607 0
12.8799 0.275151 0
12.0358 0.836617 0
12.2757 -0.596593 0
11.4778 -0.0174929 0
13.4842 1.1469 0
12.5938 1.69073 0
12.8799 0.275151 0
12.0358 0.836617 0
12.5938 1.69073 0
11.7035 2.23456 0
12.0358 0.836617 0
11.1918 1.39808 0
-0.992628 -5.97872 0
-1.33383 -6.49793 0
-0.461827 -6.32776 0
-0.774116 -6.89396 0
-0.651428 -5.45951 0
-0.992628 -5.97872 0
-0.149539 -5.76156 0
-0.461827 -6.32776 0
-1.15332 -5.15745 0
-1.52343 -5.62968 0
-0.651428 -5.45951 0
-0.992628 -5.97872 0
-1.52343 -5.62968 0
-1.89354 -6.1019 0
-0.992628 -5.97872 0
-1.33383 -6.49793 0
-1.95902 5.88694 0
-1.97647 5.3106 0
-1.41153 5.85629 0
-1.44378 5.29739 0
-1.41153 5.85629 0
-1.44378 5.29739 0
-0.864036 5.82564 0
[...]
POINT_DATA 12320
SCALARS solution_0 double 1
LOOKUP_TABLE default
1.00105 1.00127 1.00137 1.00164 1.00079 1.00105 1.00105 1.00137 1.00041 1.00061 1.00079 1.00105 1.00061 1.00078 1.00105 1.00127 0.999473 0.998718 0.999625 0.99892 0.999437 0.999473 0.999534 0.999625 0.999354 0.999345 0.999437 0.999473 0.999345 0.998535 0.999473 0.998718 1.16577 1.09526 1.09209 0.909205 1.1478 1.16577 1.15452 1.09209 1.12508 1.15702 1.1478 1.16577 1.15702 1.17529 1.16577 1.09526 1.00022 1.00061 0.999446 0.999553 0.999955 1.00022 0.999402 0.999446 1.00046 1.00092 0.999955 1.00022 1.00092 1.0015 1.00022 1.00061 1.00992 1.0069 1.0084 1.00506 1.01341 1.00992 1.0123 1.0084 1.01409 1.01095 1.01341 1.00992 1.01095 1.00819 1.00992 1.0069 1.02847 1.03133 1.02922 1.032 1.02609 1.02847 1.02687 1.02922 1.02496 1.02726 1.02609 1.02847 1.02726 1.03005 1.02847 1.03133 1.03966 1.04574 1.05028 1.05725 1.03082 1.03966 1.03945 1.05028 1.02478 1.03197 1.03082 1.03966 1.03197 1.03715 1.03966 1.04574 0.915918 1.06437 1.05538 1.09259 0.560949 0.915918 0.830182 1.05538 0.313038 0.693579 0.560949 0.915918 0.693579 0.981393 0.915918 1.06437 0.377986 0.249741 0.764335 0.731992 0.133417 0.0365002 0.377986 0.249741 0.0365002 0.0336491 0.249741 0.098276 0.249741 0.098276 0.731992 0.689182 0.998629 0.998657 0.997453 0.997867 0.999584 0.999364 0.998629 0.998657 0.999364 0.999219 0.998657 0.998735 0.998657 0.998735 0.997867 0.99824 1.01264 1.01077 1.01605 1.0138 1.01523 1.01264 1.01908 1.01605 1.01049 1.00847 1.01523 1.01264 1.00847 1.0071 1.01264 1.01077 0.988802 0.990136 0.991216 0.992252 0.991216 0.992252 0.993718 0.994463 0.990069 0.991216 0.992956 0.993718 0.987306 0.988802 0.990069 0.991216 1.04812 1.05372 1.05368 1.05862 1.04195 1.04812 1.054 1.05368 1.04054 1.04496 1.04195 1.04812 1.04496 1.04815 1.04812 1.05372 0.949031 0.957334 0.96177 0.969276 0.96177 0.969276 0.970618 0.97756 0.958448 0.96177 0.967791 0.970618 0.944547 0.949031 0.958448 0.96177 1.03072 1.02771 1.01842 1.03325 1.01772 1.03072 1.01423 1.01842 1.03125 1.02923 1.01772 1.03072 1.02923 0.976337 1.03072 1.02771 0.377986 0.764335 0.289818 0.732665 0.289818 0.732665 0.253822 0.712108 0.138139 0.289818 0.313038 0.253822 0.133417 0.377986 0.138139 0.289818 1.11592 1.15503 1.11316 1.12809 1.06191 1.10675 1.11592 1.15503 1.10675 1.12827 1.15503 1.16889 1.15503 1.16889 1.12809 1.1224 1.00878 1.00995 1.00911 1.01008 1.00995 1.01121 1.01008 1.01116 1.01008 1.01116 1.01012 1.01108 1.00911 1.01008 1.00927 1.01012 0.844817 0.979521 0.761412 0.897267 0.729158 0.844817 0.752054 0.761412 0.816983 0.953103 0.729158 0.844817 0.953103 1.0301 0.844817 0.979521 0.99417 0.994897 0.993079 0.993933 0.994897 0.995587 0.993933 0.99475 0.993933 0.99475 0.993108 0.994037 0.993079 0.993933 0.992126 0.993108 0.994575 0.995434 0.994879 0.995684 0.994395 0.995292 0.994575 0.995434 0.995292 0.996055 0.995434 0.996163 0.995434 0.996163 0.995684 0.996374 1.00013 1.00001 0.999671 0.999494 0.999871 0.999794 1.00013 1.00001 0.999794 0.999711 1.00001 0.999886 1.00001 0.999886 0.999494 0.999306 0.999012 0.998629 0.997803 0.997453 0.999625 0.999012 0.998466 0.997803 1.00053 0.999971 0.999625 0.999012 0.999971 0.999584 0.999012 0.998629 1.10925 1.12508 1.09306 1.10277 1.09306 1.10277 1.08092 1.08915 1.07942 1.09306 1.06968 1.08092 1.09214 1.10925 1.07942 1.09306 1.01621 1.02489 1.02103 1.03588 1.01722 1.01621 1.01537 1.02103 1.01912 1.01772 1.01722 1.01621 1.01772 1.01771 1.01621 1.02489 1.0129 1.01326 1.01299 1.01332 1.01264 1.0129 1.01273 1.01299 1.01256 1.01283 1.01264 1.0129 1.01283 1.01321 1.0129 1.01326 1.16995 1.12635 1.1724 1.16645 1.13244 1.10012 1.16995 1.12635 1.10012 1.06518 1.12635 1.07774 1.12635 1.07774 1.16645 1.10706 0.996163 0.996836 0.996374 0.997131 0.996055 0.996597 0.996163 0.996836 0.996597 0.997035 0.996836 0.997393 0.996836 0.997393 0.997131 0.997741 1.02804 1.03011 1.02702 1.02877 1.02702 1.02877 1.02585 1.02726 1.02536 1.02702 1.02443 1.02585 1.02615 1.02804 1.02536 1.02702 1.0015 1.00173 1.00061 1.00071 1.00173 1.00208 1.00071 1.00087 1.00071 1.00087 0.999553 0.999593 1.00061 1.00071 0.999553 0.999553 0.695079 0.857716 0.539074 0.599212 0.596382 0.695079 0.632312 0.539074 0.786179 0.919988 0.596382 0.695079 0.919988 1.01322 0.695079 0.857716 1.01796 1.01523 1.02217 1.01908 1.02174 1.01796 1.02636 1.02217 1.01582 1.01267 1.02174 1.01796 1.01267 1.01049 1.01796 1.01523 1.01108 1.00918 1.01575 1.01464 1.01575 1.01464 1.02089 1.02073 1.01635 1.01575 1.02076 1.02089 1.0123 1.01108 1.01635 1.01575 0.984608 0.985591 0.981465 0.98312 0.987431 0.9879 0.984608 0.985591 0.9879 0.988566 0.985591 0.986697 0.985591 0.986697 0.98312 0.984769 1.10667 1.13244 1.131 1.16641 1.131 1.16641 1.15702 1.17529 1.10925 1.131 1.12508 1.15702 1.09214 1.10667 1.10925 1.131 1.00235 1.00119 1.00366 1.00256 1.00322 1.00235 1.00448 1.00366 1.00218 1.00129 1.00322 1.00235 1.00129 1.00012 1.00235 1.00119 1.00233 1.00221 1.00204 1.00181 1.00266 1.00262 1.00233 1.00221 1.00262 1.00259 1.00221 1.00209 1.00221 1.00209 1.00181 1.00142 1.02784 1.02666 1.02587 1.02482 1.02666 1.02545 1.02482 1.02354 1.02482 1.02354 1.02337 1.02199 1.02587 1.02482 1.02413 1.02337 1.0068 1.00588 1.00863 1.00783 1.00863 1.00783 1.01071 1.0101 1.00915 1.00863 1.01107 1.01071 1.00744 1.0068 1.00915 1.00863 1.00433 1.00387 1.00581 1.00523 1.00272 1.00234 1.00433 1.00387 1.00234 1.00208 1.00387 1.0035 1.00387 1.0035 1.00523 1.00479 0.998911 1.00058 0.840507 0.837428 0.998079 0.998911 0.842465 0.840507 1.03241 1.0326 0.998079 0.998911 1.0326 1.03325 0.998911 1.00058 0.592107 0.225073 0.794975 0.345606 0.901568 0.592107 1.06952 0.794975 0.689182 0.40243 0.901568 0.592107 0.40243 0.138852 0.592107 0.225073 0.995913 0.996645 0.997625 0.998044 0.996645 0.99726 0.998044 0.998419 0.998044 0.998419 0.999461 0.999593 0.997625 0.998044 0.999349 0.999461 0.990202 0.991695 0.990694 0.992295 0.988514 0.990202 0.988912 0.990694 0.988308 0.990028 0.988514 0.990202 0.990028 0.991495 0.990202 0.991695 0.970594 0.974783 0.978024 0.980852 0.974783 0.978238 0.980852 0.983318 0.980852 0.983318 0.987383 0.988775 0.978024 0.980852 0.98601 0.987383 1.02006 1.02118 1.01954 1.02053 1.01901 1.02006 1.0186 1.01954 1.01937 1.02053 1.01901 1.02006 1.02053 1.0218 1.02006 1.02118 1.02354 1.02379 1.02199 1.02204 1.02545 1.02595 1.02354 1.02379 1.02595 1.02618 1.02379 1.02362 1.02379 1.02362 1.02204 1.02158 0.608837 0.95373 0.573538 0.99321 0.642647 0.920169 0.608837 0.95373 0.920169 1.07711 0.95373 1.1182 0.95373 1.1182 0.99321 1.15452 1.00034 0.999625 0.999162 0.998466 1.00129 1.00034 1.00012 0.999162 1.00218 1.00125 1.00129 1.00034 1.00125 1.00053 1.00034 0.999625 1.1182 1.12423 1.15452 1.12193 1.07711 1.11946 1.1182 1.12423 1.11946 1.09476 1.12423 1.09553 1.12423 1.09553 1.12193 1.09591 1.00321 1.00249 1.00269 1.00197 1.00408 1.00321 1.00358 1.00269 1.00443 1.00359 1.00408 1.00321 1.00359 1.00287 1.00321 1.00249 1.01701 1.01756 1.01675 1.01719 1.01657 1.01701 1.01638 1.01675 1.01728 1.01786 1.01657 1.01701 1.01786 1.01857 1.01701 1.01756 1.00287 1.00223 1.00249 1.00185 1.00223 1.0017 1.00185 1.00133 1.00185 1.00133 1.00133 1.00083 1.00249 1.00185 1.00197 1.00133 0.996433 0.996163 0.997106 0.996856 0.996835 0.996433 0.997475 0.997106 0.996097 0.995669 0.996835 0.996433 0.995669 0.995376 0.996433 0.996163 0.631548 0.858357 0 0.66536 0.702031 0.818837 0.631548 0.858357 0.818837 0.922328 0.858357 0.986162 0.858357 0.986162 0.66536 0.967916 1.01665 1.01577 1.0164 1.01565 1.01697 1.01592 1.01665 1.01577 1.01592 1.01582 1.01577 1.01559 1.01577 1.01559 1.01565 1.0154 1.01996 1.02134 1.01973 1.021 1.02134 1.02287 1.021 1.02239 1.021 1.02239 1.02053 1.0218 1.01973 1.021 1.01937 1.02053 1.00015 0.999671 0.999912 0.999494 0.999912 0.999494 0.999657 0.999306 0.999448 0.999912 0.999107 0.999657 0.999771 1.00015 0.999448 0.999912 0.974717 1.03831 0.750686 0.909641 0.857716 0.974717 0.599212 0.750686 1.01322 1.04318 0.857716 0.974717 1.04318 1.04166 0.974717 1.03831 0.995066 0.994362 0.994879 0.994274 0.995376 0.99456 0.995066 0.994362 0.99456 0.993611 0.994362 0.993566 0.994362 0.993566 0.994274 0.993609 0.488609 0.708436 0.748319 0.890239 0.369527 0.488609 0.67046 0.748319 0 0 0.369527 0.488609 0 0 0.488609 0.708436 0.986618 0.98824 0.988802 0.990136 0.984756 0.986618 0.987306 0.988802 0.982487 0.984663 0.984756 0.986618 0.984663 0.986506 0.986618 0.98824 0.825894 0.809915 0.811101 0.839784 0.842465 0.788949 0.825894 0.809915 0.788949 0.938765 0.809915 0.968199 0.809915 0.968199 0.839784 0.990972 0.858666 0.660626 0.734057 0.637567 1.00154 0.858666 0.913945 0.734057 1.03859 0.975926 1.00154 0.858666 0.975926 0.786179 0.858666 0.660626 1.00208 1.00269 1.00135 1.00197 1.00125 1.00208 1.00053 1.00135 1.00218 1.00299 1.00125 1.00208 1.00299 1.00358 1.00208 1.00269 1.01938 1.02105 1.01901 1.02083 1.01901 1.02083 1.01858 1.02042 1.01745 1.01901 1.01692 1.01858 1.01796 1.01938 1.01745 1.01901 1.01512 1.01477 1.01492 1.01456 1.01477 1.01443 1.01456 1.01423 1.01456 1.01423 1.01438 1.01404 1.01492 1.01456 1.01474 1.01438 0.985176 0.980769 0.987401 0.984222 0.988552 0.985176 0.990007 0.987401 0.987716 0.983616 0.988552 0.985176 0.983616 0.978213 0.985176 0.980769 0.892878 1.01645 0.988742 1.04018 0.722319 0.892878 0.849819 0.988742 0.637567 0.750636 0.722319 0.892878 0.750636 0.938113 0.892878 1.01645 1.04944 1.04266 1.05488 1.04666 1.04501 1.03932 1.04944 1.04266 1.03932 1.0332 1.04266 1.03535 1.04266 1.03535 1.04666 1.03777 1.00108 0.999349 1.00094 0.999461 1.00094 0.999461 1.00087 0.999593 1.00234 1.00094 1.00208 1.00087 1.00272 1.00108 1.00234 1.00094 1.01074 1.0105 1.01148 1.0112 1.0111 1.01074 1.01189 1.01148 1.01022 1.00992 1.0111 1.01074 1.00992 1.00972 1.01074 1.0105 1.01357 1.01318 1.01313 1.0128 1.01425 1.01376 1.01357 1.01318 1.01376 1.01313 1.01318 1.01267 1.01318 1.01267 1.0128 1.01236 1.0223 1.02306 1.0252 1.02438 1.02162 1.0223 1.02395 1.0252 1.02527 1.01932 1.02162 1.0223 1.01932 1.02113 1.0223 1.02306 1.02444 1.02383 1.02287 1.02239 1.02615 1.02536 1.02444 1.02383 1.02536 1.02443 1.02383 1.02308 1.02383 1.02308 1.02239 1.0218 0.920169 0.686919 1.07711 0.975899 0.642647 0.31391 0.920169 0.686919 0.31391 0.0336491 0.686919 0.441005 0.686919 0.441005 0.975899 0.830182 1.03302 0.989165 1.03352 0.979413 1.03241 0.998079 1.03302 0.989165 0.998079 0.842465 0.989165 0.825894 0.989165 0.825894 0.979413 0.811101 0.993342 0.993774 0.992126 0.992873 0.994395 0.994575 0.993342 0.993774 0.994575 0.994879 0.993774 0.994274 0.993774 0.994274 0.992873 0.993609 1.02377 1.02338 1.027 1.02597 1.02125 1.02116 1.02377 1.02338 1.02116 1.02056 1.02338 1.02254 1.02338 1.02254 1.02597 1.02465 1.01295 1.01369 1.0137 1.01466 1.01369 1.01456 1.01466 1.01583 1.01466 1.01583 1.01548 1.01692 1.0137 1.01466 1.01432 1.01548 0.808997 0.613225 1.0341 0.942143 1.0341 0.942143 1.05934 1.05269 1.0725 1.0341 1.054 1.05934 0.981393 0.808997 1.0725 1.0341 0.977687 0.981378 0.979813 0.982797 0.981378 0.98431 0.982797 0.985222 0.982797 0.985222 0.984663 0.986506 0.979813 0.982797 0.982487 0.984663 0.731992 0.689182 1.05184 1.01707 1.05184 1.01707 1.10959 1.11118 1.07364 1.05184 1.09267 1.10959 0.764335 0.731992 1.07364 1.05184 1.00359 1.00388 1.00287 1.00318 1.00443 1.00469 1.00359 1.00388 1.00469 1.00486 1.00388 1.00409 1.00388 1.00409 1.00318 1.0034 0.997833 0.998642 0.997522 0.998371 0.998642 0.998535 0.998371 0.998322 0.998371 0.998322 0.998101 0.998211 0.997522 0.998371 0.997306 0.998101 1.0154 1.01315 1.0154 1.01294 1.01315 1.01107 1.01294 1.01071 1.01294 1.01071 1.0125 1.0101 1.0154 1.01294 1.01518 1.0125 1.01408 1.01694 1.0116 1.0138 1.01186 1.01408 1.00995 1.0116 1.01334 1.01593 1.01186 1.01408 1.01593 1.01909 1.01408 1.01694 0.998331 0.998657 0.997854 0.998256 0.998821 0.999058 0.998331 0.998657 0.999058 0.999107 0.998657 0.998772 0.998657 0.998772 0.998256 0.998454 1.07484 1.00463 1.06719 1.07456 1.05556 1.07484 1.05094 1.06719 1.06013 1.02003 1.05556 1.07484 1.02003 0.712108 1.07484 1.00463 0.994347 0.99417 0.99324 0.993199 0.99324 0.993199 0.991924 0.992043 0.993491 0.99324 0.99192 0.991924 0.994816 0.994347 0.993491 0.99324 1.00124 1.00142 1.00126 1.00138 1.00126 1.00138 1.00046 1.00052 1.00113 1.00126 1.0004 1.00046 1.00106 1.00124 1.00113 1.00126 1.01869 1.01857 1.01605 1.01669 1.01605 1.01669 1.0186 1.0159 1.01615 1.01605 1.02462 1.0186 1.01807 1.01869 1.01615 1.01605 1.00373 1.00403 1.00463 1.00493 1.00403 1.00423 1.00493 1.00512 1.00493 1.00512 1.00594 1.00613 1.00463 1.00493 1.00566 1.00594 0.975899 0.830182 1.10152 1.05538 1.10152 1.05538 1.09518 1.09259 1.11946 1.10152 1.09476 1.09518 1.07711 0.975899 1.11946 1.10152 0.940601 0.940167 0.950185 0.949205 0.944193 0.940601 0.953924 0.950185 0.930641 0.927626 0.944193 0.940601 0.927626 0.928391 0.940601 0.940167 0.882682 0.768147 0.805249 0.767656 0.976337 0.866006 0.882682 0.768147 0.866006 0.752054 0.768147 0.761412 0.768147 0.761412 0.767656 0.897267 1.01387 1.01356 1.01385 1.01358 1.01429 1.01387 1.01422 1.01385 1.01432 1.01384 1.01429 1.01387 1.01384 1.0135 1.01387 1.01356 0.951454 0.966077 0.799325 0.799014 1.03434 1.03413 0.951454 0.966077 1.03413 1.03352 0.966077 0.979413 0.966077 0.979413 0.799014 0.811101 1.0148 1.0137 1.0326 1.03325 1.01556 1.0148 1.03241 1.0326 1.01408 1.01435 1.01556 1.0148 1.01435 1.01489 1.0148 1.0137 1.00579 1.00894 1.0071 1.01077 1.0049 1.00762 1.00579 1.00894 1.00762 1.00995 1.00894 1.0116 1.00894 1.0116 1.01077 1.0138 1.00668 1.00672 1.00772 1.00795 1.00772 1.00795 1.0088 1.00927 1.00749 1.00772 1.00838 1.0088 1.00661 1.00668 1.00749 1.00772 0.999657 0.999306 0.999405 0.999111 0.999405 0.999111 0.999149 0.99892 0.998772 0.999405 0.998454 0.999149 0.999107 0.999657 0.998772 0.999405 1.13716 1.14465 1.06952 1.14255 1.16479 1.13178 1.13716 1.14465 1.13178 1.10521 1.14465 1.11609 1.14465 1.11609 1.14255 1.1231 1.02056 1.0183 1.01932 1.02113 1.03599 1.02056 1.02527 1.01932 1.03859 1.02961 1.03599 1.02056 1.02961 1.01771 1.02056 1.0183 1.03357 1.02906 1.03638 1.03188 1.02906 1.02558 1.03188 1.02835 1.03188 1.02835 1.03375 1.03029 1.03638 1.03188 1.03812 1.03375 1.01466 1.01432 1.01416 1.01366 1.01416 1.01366 1.01376 1.01313 1.01457 1.01416 1.01425 1.01376 1.01495 1.01466 1.01457 1.01416 0.993108 0.994037 0.99221 0.993104 0.99221 0.993104 0.991252 0.992075 0.991201 0.99221 0.990351 0.991252 0.992126 0.993108 0.991201 0.99221 0.991612 0.992126 0.992635 0.992873 0.992635 0.992873 0.993566 0.993609 0.992543 0.992635 0.993611 0.993566 0.991309 0.991612 0.992543 0.992635 1.02228 1.02181 1.02088 1.02045 1.02413 1.02337 1.02228 1.02181 1.02337 1.02199 1.02181 1.02076 1.02181 1.02076 1.02045 1.01968 1.02922 1.032 1.02951 1.03224 1.02951 1.03224 1.0294 1.03195 1.02717 1.02951 1.02717 1.0294 1.02687 1.02922 1.02717 1.02951 0.995683 0.997233 0.99512 0.996621 0.997233 0.998466 0.996621 0.997803 0.996621 0.997803 0.996305 0.997453 0.99512 0.996621 0.994816 0.996305 1.00926 1.00788 1.00949 1.0082 1.00949 1.0082 1.0096 1.0084 1.01095 1.00949 1.01091 1.0096 1.01087 1.00926 1.01095 1.00949 1.00975 1.0088 1.01033 1.00927 1.01063 1.00975 1.01126 1.01033 1.01008 1.00925 1.01063 1.00975 1.00925 1.00838 1.00975 1.0088 1.04617 1.04168 1.04311 1.03936 1.04843 1.04348 1.04617 1.04168 1.04348 1.03933 1.04168 1.03795 1.04168 1.03795 1.03936 1.03608 1.00001 1.00034 1.00006 1.00043 1.00034 0.999981 1.00043 1.00011 1.00043 1.00011 1.0005 1.00022 1.00006 1.00043 1.00011 1.0005 0.999345 0.999135 0.998535 0.998322 0.999354 0.999214 0.999345 0.999135 0.999214 0.999153 0.999135 0.998957 0.999135 0.998957 0.998322 0.998211 1.0156 1.01588 1.01519 1.01541 1.01588 1.01619 1.01541 1.01566 1.01541 1.01566 1.01496 1.01515 1.01519 1.01541 1.01479 1.01496 1.01912 1.01722 1.01874 1.01826 1.01722 1.01537 1.01826 1.0168 1.01826 1.0168 1.01777 1.01752 1.01874 1.01826 1.0181 1.01777 1.06431 1.07327 1.065 1.0743 1.06107 1.06939 1.06431 1.07327 1.06939 1.09267 1.07327 1.0875 1.07327 1.0875 1.0743 1.08571 0.977709 0.966232 0.991815 0.982131 0.966232 0.948991 0.982131 0.966679 0.982131 0.966679 1.00407 0.993819 0.991815 0.982131 1.01002 1.00407 1.00197 1.0014 1.00202 1.00143 1.00202 1.00143 1.00209 1.00142 1.00253 1.00202 1.00259 1.00209 1.00246 1.00197 1.00253 1.00202 1.0049 1.00579 1.00209 1.00257 1.00579 1.0071 1.00257 1.00338 1.00257 1.00338 0.999047 0.999283 1.00209 1.00257 0.99903 0.999047 1.05602 1.06304 1.05725 1.06858 1.05416 1.05804 1.05602 1.06304 1.05804 1.06092 1.06304 1.06839 1.06304 1.06839 1.06858 1.07789 1.02618 1.02522 1.02362 1.02296 1.02522 1.02375 1.02296 1.02187 1.02296 1.02187 1.02112 1.0203 1.02362 1.02296 1.02158 1.02112 1.00042 1.00029 1.0009 1.00069 1.0009 1.00069 1.00139 1.00105 1.00123 1.0009 1.00188 1.00139 1.00063 1.00042 1.00123 1.0009 1.04016 1.01811 1.0383 1.01866 1.0383 1.01866 1.03726 1.01919 0.910933 1.0383 0.924408 1.03726 0.897267 1.04016 0.910933 1.0383 1.01344 1.01374 1.01332 1.01362 1.01321 1.01344 1.01309 1.01332 1.01332 1.01356 1.01321 1.01344 1.01356 1.01386 1.01344 1.01374 0.949365 0.960026 0.940495 0.953739 0.940495 0.953739 0.929257 0.946282 0.930281 0.940495 0.915849 0.929257 0.941271 0.949365 0.930281 0.940495 1.01786 1.01636 1.01857 1.01669 1.01728 1.01637 1.01786 1.01636 1.01637 1.01326 1.01636 1.0151 1.01636 1.0151 1.01669 1.0159 1.03139 1.03372 1.02959 1.03154 1.03372 1.03608 1.03154 1.03341 1.03154 1.03341 1.0294 1.0309 1.02959 1.03154 1.02784 1.0294 1.03007 1.05175 1.03034 1.04732 1.03034 1.04732 1.02995 1.04375 1.01441 1.03034 1.01686 1.02995 1.01002 1.03007 1.01441 1.03034 1.00011 1.00006 1.00014 1.00011 1.00003 1.00011 1.00004 1.00014 1.00002 1.00008 1.00003 1.00011 1.00008 1.00001 1.00011 1.00006 1.05455 1.06045 1.05766 1.06374 1.06045 1.06772 1.06374 1.07118 1.06374 1.07118 1.06597 1.07284 1.05766 1.06374 1.06017 1.06597 1.00408 1.00358 1.00504 1.00456 1.00504 1.00456 1.00615 1.00571 1.00537 1.00504 1.00644 1.00615 1.00443 1.00408 1.00537 1.00504 1.01757 1.01804 1.0181 1.01866 1.017 1.01737 1.01757 1.01804 1.01737 1.01775 1.01804 1.01851 1.01804 1.01851 1.01866 1.01926 0.999165 0.999782 0.99937 0.999918 0.998956 0.99965 0.999165 0.999782 0.99965 0.999546 0.999782 0.999635 0.999782 0.999635 0.999918 0.999721 1.03492 1.03513 1.03084 1.03121 1.03283 1.03492 1.03055 1.03084 1.03501 1.03807 1.03283 1.03492 1.03807 1.04054 1.03492 1.03513 1.0564 1.06431 1.05681 1.065 1.04997 1.0564 1.05032 1.05681 1.04843 1.05449 1.04997 1.0564 1.05449 1.06107 1.0564 1.06431 1.01591 1.01628 1.01663 1.017 1.01663 1.017 1.01737 1.01775 1.01627 1.01663 1.017 1.01737 1.01556 1.01591 1.01627 1.01663 1.03328 1.03434 0.944027 0.951454 0.944027 0.951454 0.804562 0.799325 0.937586 0.944027 0.808833 0.804562 1.03194 1.03328 0.937586 0.944027 1.10675 1.06791 1.12827 1.09274 1.06191 1.02681 1.10675 1.06791 1.02681 1.00788 1.06791 1.04418 1.06791 1.04418 1.09274 1.06854 1.02233 1.02386 1.02193 1.0236 1.02083 1.02233 1.02042 1.02193 1.02105 1.02253 1.02083 1.02233 1.02253 1.02398 1.02233 1.02386 0.962153 0.962711 0.966411 0.967577 0.966411 0.967577 0.970105 0.971635 0.96596 0.966411 0.969237 0.970105 0.962308 0.962153 0.96596 0.966411 1.03207 1.03468 1.0347 1.03788 1.03468 1.0378 1.03788 1.04175 1.03788 1.04175 1.04045 1.04503 1.0347 1.03788 1.03674 1.04045 1.01129 1.00986 1.01068 1.00952 1.00986 1.00848 1.00952 1.00836 1.00952 1.00836 1.00925 1.00826 1.01068 1.00952 1.01022 1.00925 1.03242 1.03011 1.03394 1.03121 1.03394 1.03121 1.03501 1.03195 1.03707 1.03394 1.03866 1.03501 1.03501 1.03242 1.03707 1.03394 0.992126 0.991201 0.991219 0.990126 0.991201 0.990351 0.990126 0.989117 0.990126 0.989117 0.988967 0.987753 0.991219 0.990126 0.990246 0.988967 0.531961 0.369527 0.669989 0.67046 0.632801 0.531961 0.704523 0.669989 0.592042 0.359348 0.632801 0.531961 0.359348 0 0.531961 0.369527 0.989973 0.98507 0.992581 0.987435 0.992581 0.987435 0.996389 0.99138 0.996467 0.992581 0.999974 0.996389 0.993858 0.989973 0.996467 0.992581 0.608837 0.573538 0.238775 0.170134 0.238775 0.170134 -0.00178025 -0.0534096 0.31391 0.238775 0.0336491 -0.00178025 0.642647 0.608837 0.31391 0.238775 1.01414 1.01422 1.01532 1.01529 1.01532 1.01529 1.03413 1.03352 1.0155 1.01532 1.03434 1.03413 1.01402 1.01414 1.0