# vtk DataFile Version 3.0
#This file was generated by the deal.II library on 2020/11/19 at 14:49:33
ASCII
DATASET UNSTRUCTURED_GRID

POINTS 2304 double
0.125 0.124999 0
0.125 0.0833324 0
0.166666 0.124998 0
0.166667 0.0833322 0
0.125 0.166665 0
0.125 0.124999 0
0.166666 0.166664 0
0.166666 0.124998 0
0.0833332 0.166666 0
0.0833332 0.124999 0
0.125 0.166665 0
0.125 0.124999 0
0.0833332 0.124999 0
0.0833333 0.0833327 0
0.125 0.124999 0
0.125 0.0833324 0
0.458332 0.541659 0
0.499999 0.541659 0
0.458332 0.583326 0
0.499999 0.583326 0
0.416666 0.541659 0
0.458332 0.541659 0
0.416666 0.583326 0
0.458332 0.583326 0
0.416666 0.499992 0
0.458332 0.499992 0
0.416666 0.541659 0
0.458332 0.541659 0
0.458332 0.499992 0
0.499999 0.499992 0
0.458332 0.541659 0
0.499999 0.541659 0
0.541666 0.624993 0
0.583332 0.624993 0
0.541666 0.66666 0
0.583332 0.66666 0
0.499999 0.624993 0
0.541666 0.624993 0
0.499999 0.66666 0
0.541666 0.66666 0
0.499999 0.583326 0
0.541666 0.583326 0
0.499999 0.624993 0
0.541666 0.624993 0
0.541666 0.583326 0
0.583332 0.583326 0
0.541666 0.624993 0
0.583332 0.624993 0
0.499999 0.541659 0
0.541666 0.541659 0
0.499999 0.583326 0
0.541666 0.583326 0
0.499999 0.499992 0
0.541666 0.499992 0
0.499999 0.541659 0
0.541666 0.541659 0
0.541666 0.499992 0
0.583332 0.499992 0
0.541666 0.541659 0
0.583332 0.541659 0
0.541666 0.541659 0
0.583332 0.541659 0
0.541666 0.583326 0
0.583332 0.583326 0
0.499999 0.458326 0
0.499999 0.416659 0
0.541666 0.458326 0
0.541666 0.416659 0
0.541666 0.458326 0
0.541666 0.416659 0
0.583332 0.458326 0
0.583332 0.416659 0
0.541666 0.499992 0
0.541666 0.458326 0
0.583332 0.499992 0
0.583332 0.458326 0
0.499999 0.499992 0
0.499999 0.458326 0
0.541666 0.499992 0
0.541666 0.458326 0
0.208333 0.20833 0
0.166666 0.208331 0
0.208333 0.166664 0
0.166666 0.166664 0
0.25 0.20833 0
0.208333 0.20833 0
0.25 0.166664 0
0.208333 0.166664 0
0.249999 0.249996 0
0.208333 0.249996 0
0.25 0.20833 0
0.208333 0.20833 0
0.208333 0.249996 0
0.166666 0.249997 0
0.208333 0.20833 0
0.166666 0.208331 0
0.291666 0.874997 0
0.25 0.874998 0
0.291666 0.83333 0
0.25 0.83333 0
0.333333 0.874997 0
0.291666 0.874997 0
0.333333 0.83333 0
0.291666 0.83333 0
0.333333 0.916665 0
0.291666 0.916665 0
0.333333 0.874997 0
0.291666 0.874997 0
0.291666 0.916665 0
0.25 0.916665 0
0.291666 0.874997 0
0.25 0.874998 0
0.499999 0.374993 0
0.541666 0.374993 0
0.499999 0.416659 0
0.541666 0.416659 0
0.499999 0.333326 0
0.541666 0.333326 0
0.499999 0.374993 0
0.541666 0.374993 0
0.541666 0.333326 0
0.583332 0.333327 0
0.541666 0.374993 0
0.583332 0.374993 0
0.541666 0.374993 0
0.583332 0.374993 0
0.541666 0.416659 0
0.583332 0.416659 0
0.458332 0.499992 0
0.458332 0.458326 0
0.499999 0.499992 0
0.499999 0.458326 0
0.416666 0.499992 0
0.416666 0.458326 0
0.458332 0.499992 0
0.458332 0.458326 0
0.416666 0.458326 0
0.416666 0.416659 0
0.458332 0.458326 0
0.458332 0.416659 0
0.458332 0.458326 0
0.458332 0.416659 0
0.499999 0.458326 0
0.499999 0.416659 0
0.708333 0.166663 0
0.708333 0.124997 0
0.75 0.166664 0
0.75 0.124998 0
0.666666 0.166663 0
0.666666 0.124997 0
0.708333 0.166663 0
0.708333 0.124997 0
0.666666 0.124997 0
0.666666 0.0833314 0
0.708333 0.124997 0
0.708333 0.0833316 0
0.708333 0.124997 0
0.708333 0.0833316 0
0.75 0.124998 0
0.75 0.0833317 0
0.499999 0.29166 0
0.499999 0.249994 0
0.541666 0.29166 0
0.541666 0.249994 0
0.541666 0.29166 0
0.541666 0.249994 0
0.583333 0.29166 0
0.583333 0.249994 0
0.541666 0.333326 0
0.541666 0.29166 0
0.583332 0.333327 0
0.583333 0.29166 0
0.499999 0.333326 0
0.499999 0.29166 0
0.541666 0.333326 0
0.541666 0.29166 0
0.125 0.208331 0
0.125 0.166665 0
0.166666 0.208331 0
0.166666 0.166664 0
0.125 0.249998 0
0.125 0.208331 0
0.166666 0.249997 0
0.166666 0.208331 0
0.0833331 0.249998 0
0.0833331 0.208332 0
0.125 0.249998 0
0.125 0.208331 0
0.0833331 0.208332 0
0.0833332 0.166666 0
0.125 0.208331 0
0.125 0.166665 0
0.875 0.791665 0
0.875 0.833332 0
0.833333 0.791664 0
0.833333 0.833331 0
0.875 0.749998 0
0.875 0.791665 0
0.833333 0.749997 0
0.833333 0.791664 0
0.916666 0.749998 0
0.916666 0.791665 0
0.875 0.749998 0
0.875 0.791665 0
0.916666 0.791665 0
0.916667 0.833332 0
0.875 0.791665 0
0.875 0.833332 0
0.249999 0.458327 0
0.208333 0.458328 0
0.249999 0.416661 0
0.208333 0.416662 0
0.249999 0.499994 0
0.208333 0.499995 0
0.249999 0.458327 0
0.208333 0.458328 0
0.208333 0.499995 0
0.166666 0.499996 0
0.208333 0.458328 0
0.166666 0.458329 0
0.208333 0.458328 0
0.166666 0.458329 0
0.208333 0.416662 0
0.166666 0.416662 0
0.708333 0.458327 0
0.708333 0.41666 0
0.749999 0.458328 0
0.749999 0.416661 0
0.708332 0.499994 0
0.708333 0.458327 0
0.749999 0.499994 0
0.749999 0.458328 0
0.666666 0.499993 0
0.666666 0.458327 0
0.708332 0.499994 0
0.708333 0.458327 0
0.666666 0.458327 0
0.666666 0.41666 0
0.708333 0.458327 0
0.708333 0.41666 0
0.416666 0.583326 0
0.458332 0.583326 0
0.416666 0.624993 0
0.458332 0.624993 0
0.458332 0.583326 0
0.499999 0.583326 0
0.458332 0.624993 0
0.499999 0.624993 0
0.458332 0.624993 0
0.499999 0.624993 0
0.458332 0.66666 0
0.499999 0.66666 0
0.416666 0.624993 0
0.458332 0.624993 0
0.416666 0.66666 0
0.458332 0.66666 0
0.458333 0.708327 0
0.499999 0.708327 0
0.458333 0.749994 0
0.499999 0.749994 0
0.416666 0.708327 0
0.458333 0.708327 0
0.416666 0.749994 0
0.458333 0.749994 0
0.416666 0.66666 0
0.458332 0.66666 0
0.416666 0.708327 0
0.458333 0.708327 0
0.458332 0.66666 0
0.499999 0.66666 0
0.458333 0.708327 0
0.499999 0.708327 0
0.416667 0.958332 0
0.458333 0.958332 0
0.416667 1 0
0.458333 1 0
0.416666 0.916665 0
0.458333 0.916665 0
0.416667 0.958332 0
0.458333 0.958332 0
0.458333 0.916665 0
0.5 0.916665 0
0.458333 0.958332 0
0.5 0.958332 0
0.458333 0.958332 0
0.5 0.958332 0
0.458333 1 0
0.5 1 0
0.25 0.916665 0
0.208333 0.916665 0
0.25 0.874998 0
0.208333 0.874998 0
0.208333 0.916665 0
0.166667 0.916666 0
0.208333 0.874998 0
0.166666 0.874998 0
0.208333 0.874998 0
0.166666 0.874998 0
0.208333 0.833331 0
0.166666 0.833331 0
0.25 0.874998 0
0.208333 0.874998 0
0.25 0.83333 0
0.208333 0.833331 0
0.0416666 0.916666 0
0.0416666 0.875 0
0.0833333 0.916666 0
0.0833332 0.874999 0
0 0.916667 0
0 0.875 0
0.0416666 0.916666 0
0.0416666 0.875 0
0 0.875 0
0 0.833333 0
0.0416666 0.875 0
0.0416666 0.833333 0
0.0416666 0.875 0
0.0416666 0.833333 0
0.0833332 0.874999 0
0.0833332 0.833332 0
0.458332 0.333326 0
0.499999 0.333326 0
0.458332 0.374993 0
0.499999 0.374993 0
0.458332 0.374993 0
0.499999 0.374993 0
0.458332 0.416659 0
0.499999 0.416659 0
0.416666 0.374993 0
0.458332 0.374993 0
0.416666 0.416659 0
0.458332 0.416659 0
0.416666 0.333327 0
0.458332 0.333326 0
0.416666 0.374993 0
0.458332 0.374993 0
0.125 0.45833 0
0.125 0.416663 0
0.166666 0.458329 0
0.166666 0.416662 0
0.125 0.499997 0
0.125 0.45833 0
0.166666 0.499996 0
0.166666 0.458329 0
0.083333 0.499998 0
0.083333 0.458331 0
0.125 0.499997 0
0.125 0.45833 0
0.083333 0.458331 0
0.083333 0.416664 0
0.125 0.45833 0
0.125 0.416663 0
0.375 0.874997 0
0.333333 0.874997 0
0.374999 0.83333 0
0.333333 0.83333 0
0.416666 0.874997 0
0.375 0.874997 0
0.416666 0.833329 0
0.374999 0.83333 0
0.416666 0.916665 0
0.375 0.916665 0
0.416666 0.874997 0
0.375 0.874997 0
0.375 0.916665 0
0.333333 0.916665 0
0.375 0.874997 0
0.333333 0.874997 0
0.374999 0.374993 0
0.374999 0.416659 0
0.333332 0.374993 0
0.333332 0.41666 0
0.374999 0.333327 0
0.374999 0.374993 0
0.333333 0.333327 0
0.333332 0.374993 0
0.416666 0.333327 0
0.416666 0.374993 0
0.374999 0.333327 0
0.374999 0.374993 0
0.416666 0.374993 0
0.416666 0.416659 0
0.374999 0.374993 0
0.374999 0.416659 0
0.791666 0.333329 0
0.749999 0.333328 0
0.791666 0.291663 0
0.749999 0.291662 0
0.791666 0.291663 0
0.749999 0.291662 0
0.791666 0.249996 0
0.749999 0.249996 0
0.833333 0.291663 0
0.791666 0.291663 0
0.833333 0.249997 0
0.791666 0.249996 0
0.833333 0.33333 0
0.791666 0.333329 0
0.833333 0.291663 0
0.791666 0.291663 0
0.833333 0.749997 0
0.833333 0.791664 0
0.791666 0.749997 0
0.791666 0.791664 0
0.833333 0.791664 0
0.833333 0.833331 0
0.791666 0.791664 0
0.791666 0.833331 0
0.791666 0.791664 0
0.791666 0.833331 0
0.75 0.791663 0
0.75 0.83333 0
0.791666 0.749997 0
0.791666 0.791664 0
0.749999 0.749996 0
0.75 0.791663 0
0.291666 0.624994 0
0.291666 0.666661 0
0.249999 0.624995 0
0.249999 0.666662 0
0.291666 0.583327 0
0.291666 0.624994 0
0.249999 0.583328 0
0.249999 0.624995 0
0.333332 0.583326 0
0.333332 0.624994 0
0.291666 0.583327 0
0.291666 0.624994 0
0.333332 0.624994 0
0.333333 0.666661 0
0.291666 0.624994 0
0.291666 0.666661 0
0.416666 0.333327 0
0.374999 0.333327 0
0.416666 0.29166 0
0.374999 0.291661 0
0.374999 0.333327 0
0.333333 0.333327 0
0.374999 0.291661 0
0.333333 0.291661 0
0.374999 0.291661 0
0.333333 0.291661 0
0.374999 0.249995 0
0.333333 0.249995 0
0.416666 0.29166 0
0.374999 0.291661 0
0.416666 0.249994 0
0.374999 0.249995 0
0.624999 0.66666 0
0.624999 0.708328 0
0.583332 0.66666 0
0.583333 0.708327 0
0.666666 0.666661 0
0.666666 0.708328 0
0.624999 0.66666 0
0.624999 0.708328 0
0.666666 0.708328 0
0.666666 0.749995 0
0.624999 0.708328 0
0.624999 0.749995 0
0.624999 0.708328 0
0.624999 0.749995 0
0.583333 0.708327 0
0.583333 0.749995 0
0.875 0.541664 0
0.875 0.58333 0
0.833333 0.541663 0
0.833333 0.583329 0
0.875 0.499997 0
0.875 0.541664 0
0.833333 0.499996 0
0.833333 0.541663 0
0.916666 0.499998 0
0.916666 0.541665 0
0.875 0.499997 0
0.875 0.541664 0
0.916666 0.541665 0
0.916666 0.583331 0
0.875 0.541664 0
0.875 0.58333 0
0.958333 0.916666 0
0.916667 0.916666 0
0.958333 0.875 0
0.916667 0.874999 0
0.958333 0.875 0
0.916667 0.874999 0
0.958333 0.833333 0
0.916667 0.833332 0
1 0.875 0
0.958333 0.875 0
1 0.833333 0
0.958333 0.833333 0
1 0.916667 0
0.958333 0.916666 0
1 0.875 0
0.958333 0.875 0
0.0416666 0.125 0
0.0416666 0.083333 0
0.0833332 0.124999 0
0.0833333 0.0833327 0
0.0416666 0.166666 0
0.0416666 0.125 0
0.0833332 0.166666 0
0.0833332 0.124999 0
0 0.166667 0
0 0.125 0
0.0416666 0.166666 0
0.0416666 0.125 0
0 0.125 0
0 0.0833333 0
0.0416666 0.125 0
0.0416666 0.083333 0
[...]
POINT_DATA 2304
SCALARS solution_0 double 1
LOOKUP_TABLE default
-0.0149775 -0.00856329 -0.0246751 -0.0148206 -0.0215597 -0.0149775 -0.0345717 -0.0246751 -0.0107211 -0.00720098 -0.0215597 -0.0149775 -0.00720098 -0.00387406 -0.0149775 -0.00856329 -0.0497413 -0.0530673 -0.0105747 -0.0128433 -0.0466845 -0.0497413 -0.00940965 -0.0105747 -0.0836914 -0.0889792 -0.0466845 -0.0497413 -0.0889792 -0.0937507 -0.0497413 -0.0530673 0.0230418 0.0173528 0.0616713 0.0558327 0.0264445 0.0230418 0.0645258 0.0616713 -0.0128433 -0.0165456 0.0264445 0.0230418 -0.0165456 -0.0219774 0.0230418 0.0173528 -0.0530673 -0.0571612 -0.0128433 -0.0165456 -0.0937507 -0.0986671 -0.0530673 -0.0571612 -0.0986671 -0.104489 -0.0571612 -0.062561 -0.0571612 -0.062561 -0.0165456 -0.0219774 -0.13349 -0.169312 -0.139788 -0.177259 -0.139788 -0.177259 -0.146402 -0.184514 -0.0986671 -0.139788 -0.104489 -0.146402 -0.0937507 -0.13349 -0.0986671 -0.139788 -0.0611525 -0.0435117 -0.0492639 -0.0345717 -0.0799666 -0.0611525 -0.0651524 -0.0492639 -0.0914799 -0.0704682 -0.0799666 -0.0611525 -0.0704682 -0.050584 -0.0611525 -0.0435117 0.107234 0.0746791 0.0977181 0.0709738 0.138613 0.107234 0.123475 0.0977181 0.206498 0.168409 0.138613 0.107234 0.168409 0.128746 0.107234 0.0746791 -0.196797 -0.205952 -0.169312 -0.177259 -0.211419 -0.220593 -0.196797 -0.205952 -0.220593 -0.225936 -0.205952 -0.212947 -0.205952 -0.212947 -0.177259 -0.184514 -0.0889792 -0.126682 -0.0937507 -0.13349 -0.0836914 -0.118648 -0.0889792 -0.126682 -0.118648 -0.148945 -0.126682 -0.160063 -0.126682 -0.160063 -0.13349 -0.169312 -0.0853771 -0.0569146 -0.0639928 -0.0405403 -0.104959 -0.072834 -0.0853771 -0.0569146 -0.072834 -0.0455703 -0.0569146 -0.0337361 -0.0569146 -0.0337361 -0.0405403 -0.0221555 -0.210633 -0.195304 -0.218329 -0.200376 -0.218329 -0.200376 -0.220796 -0.199496 -0.220593 -0.218329 -0.225936 -0.220796 -0.211419 -0.210633 -0.220593 -0.218329 -0.0275881 -0.0215597 -0.0435117 -0.0345717 -0.0323992 -0.0275881 -0.050584 -0.0435117 -0.0166171 -0.0139894 -0.0323992 -0.0275881 -0.0139894 -0.0107211 -0.0275881 -0.0215597 0.00891138 0.0644362 0.0521487 0.109679 -0.0286986 0.00891138 0.0102517 0.0521487 -0.0522207 -0.032697 -0.0286986 0.00891138 -0.032697 0.00294133 0.00891138 0.0644362 -0.0695851 -0.0543637 -0.0849821 -0.0663591 -0.0504164 -0.0392634 -0.0695851 -0.0543637 -0.0392634 -0.0277667 -0.0543637 -0.0390592 -0.0543637 -0.0390592 -0.0663591 -0.0479836 -0.171815 -0.199718 -0.176997 -0.194658 -0.134474 -0.171815 -0.147189 -0.176997 -0.122034 -0.16292 -0.134474 -0.171815 -0.16292 -0.197181 -0.171815 -0.199718 -0.00940965 -0.0105747 0.0269738 0.0276818 -0.0105747 -0.0128433 0.0276818 0.0264445 0.0276818 0.0264445 0.0644358 0.0645258 0.0269738 0.0276818 0.0615912 0.0644358 0.0990144 0.100919 0.130585 0.134855 0.0936145 0.0990144 0.122186 0.130585 0.0615912 0.0644358 0.0936145 0.0990144 0.0644358 0.0645258 0.0990144 0.100919 0.53085 0.557246 1 1 0.274849 0.303965 0.53085 0.557246 0.303965 0.329182 0.557246 0.580072 0.557246 0.580072 1 1 0.128746 0.0885695 0.0746791 0.042619 0.0885695 0.0494908 0.042619 0.0134789 0.042619 0.0134789 0.0448617 0.0215597 0.0746791 0.042619 0.0709738 0.0448617 -0.0232419 -0.00965041 -0.0116434 -0.0198053 0 0 -0.0232419 -0.00965041 0 0 -0.00965041 -0.00336615 -0.00965041 -0.00336615 -0.0198053 -0.00443272 -0.198838 -0.211419 -0.185345 -0.196797 -0.185345 -0.196797 -0.160063 -0.169312 -0.171405 -0.185345 -0.148945 -0.160063 -0.183151 -0.198838 -0.171405 -0.185345 -0.0245005 -0.0306173 -0.0390592 -0.0479836 -0.0167953 -0.0245005 -0.0277667 -0.0390592 -0.00764993 -0.0119368 -0.0167953 -0.0245005 -0.0119368 -0.0153991 -0.0245005 -0.0306173 0.167617 0.138613 0.146936 0.123475 0.193348 0.167617 0.167039 0.146936 0.274849 0.242193 0.193348 0.167617 0.242193 0.206498 0.167617 0.138613 -0.154992 -0.135659 -0.136431 -0.120271 -0.164759 -0.154992 -0.144251 -0.136431 -0.183151 -0.171405 -0.164759 -0.154992 -0.171405 -0.148945 -0.154992 -0.135659 -0.147082 -0.182334 -0.120009 -0.156293 -0.120009 -0.156293 -0.0914794 -0.124423 -0.0809447 -0.120009 -0.0590619 -0.0914794 -0.104341 -0.147082 -0.0809447 -0.120009 0.0102517 0.0521487 0.0433644 0.0845015 0.0521487 0.109679 0.0845015 0.140139 0.0845015 0.140139 0.109634 0.162214 0.0433644 0.0845015 0.0695085 0.109634 0.0179599 0.0419201 0.0147663 0.0342725 -0.00803939 0.0179599 -0.00675546 0.0147663 -0.00863436 0.0214863 -0.00803939 0.0179599 0.0214863 0.0495774 0.0179599 0.0419201 -0.183151 -0.164759 -0.182764 -0.164048 -0.164759 -0.144251 -0.164048 -0.14319 -0.164048 -0.14319 -0.153597 -0.133925 -0.182764 -0.164048 -0.170998 -0.153597 0.0470072 0.0842582 0.0558327 0.093525 0.0350874 0.0713781 0.0470072 0.0842582 0.0713781 0.10788 0.0842582 0.121064 0.0842582 0.121064 0.093525 0.130074 -0.113302 -0.106735 -0.13168 -0.110588 -0.11337 -0.113302 -0.145204 -0.13168 -0.0636852 -0.0696633 -0.11337 -0.113302 -0.0696633 -0.0727124 -0.113302 -0.106735 0.0553376 0.204614 -0.00658277 0.0709146 -0.00658277 0.0709146 -0.0236142 0.00294133 0 -0.00658277 0 -0.0236142 0 0.0553376 0 -0.00658277 -0.00188195 -0.000919599 -0.00720098 -0.00387406 -0.00291415 -0.00188195 -0.0107211 -0.00720098 0 0 -0.00291415 -0.00188195 0 0 -0.00188195 -0.000919599 -0.0198053 -0.00443272 -0.00881408 0.00381964 -0.00881408 0.00381964 0.0134789 0.0215597 0.0140628 -0.00881408 0.0494908 0.0134789 -0.0116434 -0.0198053 0.0140628 -0.00881408 -0.0367986 0 -0.0336455 0 -0.0699455 -0.0367986 -0.064672 -0.0336455 -0.0717114 -0.0377489 -0.0699455 -0.0367986 -0.0377489 0 -0.0367986 0 0.540949 1 0.591277 1 0.298539 0.540949 0.348971 0.591277 0.204614 0.451415 0.298539 0.540949 0.451415 1 0.540949 1 -0.00525297 -0.0186679 -0.00491926 -0.0177052 -0.00491926 -0.0177052 -0.00416981 -0.0153991 0 -0.00491926 0 -0.00416981 0 -0.00525297 0 -0.00491926 -0.218101 -0.212305 -0.197181 -0.199718 -0.220945 -0.206866 -0.218101 -0.212305 -0.206866 -0.182334 -0.212305 -0.196437 -0.212305 -0.196437 -0.199718 -0.194658 -0.140838 -0.104959 -0.118566 -0.0853771 -0.118566 -0.0853771 -0.0924407 -0.0639928 -0.153689 -0.118566 -0.124423 -0.0924407 -0.176517 -0.140838 -0.153689 -0.118566 -0.144251 -0.136431 -0.122363 -0.116308 -0.136431 -0.120271 -0.116308 -0.103178 -0.116308 -0.103178 -0.0953505 -0.0849821 -0.122363 -0.116308 -0.0998946 -0.0953505 -0.0727124 -0.0727264 -0.106735 -0.0946009 -0.0727264 -0.0697357 -0.0946009 -0.0777704 -0.0946009 -0.0777704 -0.0845802 -0.055641 -0.106735 -0.0946009 -0.110588 -0.0845802 -0.104959 -0.120853 -0.072834 -0.0866139 -0.120853 -0.131877 -0.0866139 -0.0969703 -0.0866139 -0.0969703 -0.0562749 -0.064672 -0.072834 -0.0866139 -0.0455703 -0.0562749 0 0 -0.000919599 -0.000353892 0 0 -0.000353892 0 -0.000353892 0 -0.00119082 0 -0.000919599 -0.000353892 -0.00387406 -0.00119082 -0.0258979 -0.0277492 -0.0727264 -0.0697357 -0.0235306 -0.0258979 -0.0727124 -0.0727264 0 0 -0.0235306 -0.0258979 0 0 -0.0258979 -0.0277492 -0.0255367 -0.0405403 -0.0121783 -0.0221555 -0.0134862 -0.0255367 -0.0048409 -0.0121783 -0.0252705 -0.0431729 -0.0134862 -0.0255367 -0.0431729 -0.0639928 -0.0255367 -0.0405403 -0.0612715 -0.104341 -0.0453208 -0.0809447 -0.0453208 -0.0809447 -0.0316972 -0.0590619 -0.0188004 -0.0453208 -0.0126001 -0.0316972 -0.0265387 -0.0612715 -0.0188004 -0.0453208 0.375212 0.387303 0.227312 0.244065 0.227312 0.244065 0.140139 0.162214 0.199371 0.227312 0.109679 0.140139 0.348971 0.375212 0.199371 0.227312 -0.0984461 -0.076207 -0.0914799 -0.0704682 -0.0998946 -0.0776101 -0.0984461 -0.076207 -0.0776101 -0.0561823 -0.076207 -0.0550023 -0.076207 -0.0550023 -0.0704682 -0.050584 0.00800508 0.0433644 0.0341147 0.0695085 -0.0258264 0.00800508 -0.00023212 0.0341147 -0.055641 -0.0244162 -0.0258264 0.00800508 -0.0244162 0.0102517 0.00800508 0.0433644 8.93206e-05 0.00133797 0 0 0 8.93206e-05 0 0 0 0.000503903 0 8.93206e-05 0.000503903 0.000783739 8.93206e-05 0.00133797 0 -0.0232419 0 0.135865 -0.0232419 -0.0116434 0.135865 0.194128 0.135865 0.194128 1 1 0 0.135865 1 1 -0.0633807 -0.0522207 -0.0562941 -0.0286986 -0.0562941 -0.0286986 -0.0244162 0.0102517 -0.0777704 -0.0562941 -0.055641 -0.0244162 -0.0697357 -0.0633807 -0.0777704 -0.0562941 -0.0914794 -0.124423 -0.0652711 -0.0924407 -0.0652711 -0.0924407 -0.0431729 -0.0639928 -0.0403803 -0.0652711 -0.0252705 -0.0431729 -0.0590619 -0.0914794 -0.0403803 -0.0652711 -0.16752 -0.176547 -0.196437 -0.194658 -0.147082 -0.16752 -0.182334 -0.196437 -0.104341 -0.126031 -0.147082 -0.16752 -0.126031 -0.142004 -0.16752 -0.176547 -0.018262 -0.0166171 -0.0354235 -0.0323992 -0.0354235 -0.0323992 -0.0550023 -0.050584 -0.0362381 -0.0354235 -0.0561823 -0.0550023 -0.0186679 -0.018262 -0.0362381 -0.0354235 -0.074297 -0.0663591 -0.0538264 -0.0479836 -0.0776101 -0.074297 -0.0561823 -0.0538264 -0.0998946 -0.0953505 -0.0776101 -0.074297 -0.0953505 -0.0849821 -0.074297 -0.0663591 0.11182 0.123475 0.0909353 0.0977181 0.0909353 0.0977181 0.0693179 0.0709738 0.0792967 0.0909353 0.0625233 0.0693179 0.0955769 0.11182 0.0792967 0.0909353 -0.0177052 -0.0346259 -0.0153991 -0.0306173 -0.0186679 -0.0362381 -0.0177052 -0.0346259 -0.0362381 -0.0561823 -0.0346259 -0.0538264 -0.0346259 -0.0538264 -0.0306173 -0.0479836 0.0342725 0.0505523 0.0272004 0.03892 0.0505523 0.0625233 0.03892 0.0462809 0.03892 0.0462809 0.0281712 0.0314182 0.0272004 0.03892 0.0207816 0.0281712 -0.16292 -0.154051 -0.197181 -0.191362 -0.122034 -0.112038 -0.16292 -0.154051 -0.112038 -0.104489 -0.154051 -0.146402 -0.154051 -0.146402 -0.191362 -0.184514 -0.0051566 -0.00467213 -0.018262 -0.0166171 -0.00525297 -0.0051566 -0.0186679 -0.018262 0 0 -0.00525297 -0.0051566 0 0 -0.0051566 -0.00467213 0.0483131 0.0448617 0.0293797 0.0215597 0.0462809 0.0483131 0.0314182 0.0293797 0.0625233 0.0693179 0.0462809 0.0483131 0.0693179 0.0709738 0.0483131 0.0448617 -0.0277492 -0.0290154 -0.0697357 -0.0633807 0 0 -0.0277492 -0.0290154 0 0 -0.0290154 -0.0294487 -0.0290154 -0.0294487 -0.0633807 -0.0522207 0.288783 1 0.451415 1 0.0553376 0.288783 0.204614 0.451415 0 0 0.0553376 0.288783 0 1 0.288783 1 -0.0294487 -0.0283765 -0.0522207 -0.032697 0 0 -0.0294487 -0.0283765 0 0 -0.0283765 -0.0236142 -0.0283765 -0.0236142 -0.032697 0.00294133 0.0709146 0.152669 0.00294133 0.0644362 0.204614 0.298539 0.0709146 0.152669 0.298539 0.348971 0.152669 0.199371 0.152669 0.199371 0.0644362 0.109679 -0.0606847 -0.0504164 -0.0840914 -0.0695851 -0.0840914 -0.0695851 -0.103178 -0.0849821 -0.0973395 -0.0840914 -0.120271 -0.103178 -0.0697252 -0.0606847 -0.0973395 -0.0840914 -0.00467213 -0.00388649 -0.0166171 -0.0139894 0 0 -0.00467213 -0.00388649 0 0 -0.00388649 -0.00291415 -0.00388649 -0.00291415 -0.0139894 -0.0107211 -0.122363 -0.0998946 -0.121039 -0.0984461 -0.121039 -0.0984461 -0.112914 -0.0914799 -0.14319 -0.121039 -0.133925 -0.112914 -0.144251 -0.122363 -0.14319 -0.121039 -0.157461 -0.167667 -0.120853 -0.131877 -0.140838 -0.157461 -0.104959 -0.120853 -0.176517 -0.191768 -0.140838 -0.157461 -0.191768 -0.199496 -0.157461 -0.167667 0.0196602 -0.00023212 0.0548257 0.0341147 0.0548257 0.0341147 0.090722 0.0695085 0.0713781 0.0548257 0.10788 0.090722 0.0350874 0.0196602 0.0713781 0.0548257 0.206498 0.468301 0.168409 0.432658 0.468301 1 0.432658 1 0.432658 1 0.394267 1 0.168409 0.432658 0.128746 0.394267 0.0885695 0.352962 0.0494908 0.307649 0.128746 0.394267 0.0885695 0.352962 0.394267 1 0.352962 1 0.352962 1 0.307649 1 0.0055316 0.00837317 0.00837273 0.0146231 0.00158593 0.000476736 0.0055316 0.00837317 0.000476736 -0.00195793 0.00837317 0.0103626 0.00837317 0.0103626 0.0146231 0.0207816 0 0 -0.0175272 -0.0206966 0 0 -0.0206966 -0.0235306 -0.0206966 -0.0235306 -0.0696633 -0.0727124 -0.0175272 -0.0206966 -0.0636852 -0.0696633 0.146526 0.167039 0.130721 0.146936 0.130721 0.146936 0.11182 0.123475 0.11023 0.130721 0.0955769 0.11182 0.122186 0.146526 0.11023 0.130721 -0.200376 -0.17147 -0.199496 -0.167667 -0.195304 -0.169357 -0.200376 -0.17147 -0.169357 -0.137862 -0.17147 -0.137533 -0.17147 -0.137533 -0.167667 -0.131877 0 0.00195568 0 0.0026176 0 0.000911828 0 0.00195568 0.000911828 0.00158593 0.00195568 0.0055316 0.00195568 0.0055316 0.0026176 0.00837273 -0.154019 -0.147189 -0.171765 -0.176997 -0.171765 -0.176997 -0.176547 -0.194658 -0.148888 -0.171765 -0.142004 -0.176547 -0.145204 -0.154019 -0.148888 -0.171765 0 0 -0.00176241 -0.00307706 0 0 -0.00307706 -0.00416981 -0.00307706 -0.00416981 -0.0119368 -0.0153991 -0.00176241 -0.00307706 -0.00764993 -0.0119368 0.501113 1 0.468301 1 0.242193 0.501113 0.206498 0.468301 0.274849 0.53085 0.242193 0.501113 0.53085 1 0.501113 1 -0.145204 -0.13168 -0.154019 -0.126719 -0.13168 -0.110588 -0.126719 -0.0941647 -0.126719 -0.0941647 -0.110749 -0.0725781 -0.154019 -0.126719 -0.147189 -0.110749 -0.0455703 -0.0220605 -0.0337361 -0.0150545 -0.0220605 0 -0.0150545 0 -0.0150545 0 -0.00846744 0 -0.0337361 -0.0150545 -0.0221555 -0.00846744 -0.0048409 -0.0121783 0.000291454 -0.00315727 -0.0121783 -0.0221555 -0.00315727 -0.00846744 -0.00315727 -0.00846744 0 0 0.000291454 -0.00315727 0 0 -0.065273 -0.0581743 -0.0336352 -0.029421 -0.0581743 -0.0495521 -0.029421 -0.0244883 -0.029421 -0.0244883 0 0 -0.0336352 -0.029421 0 0 -0.078331 -0.0943369 -0.126031 -0.142004 -0.0612715 -0.078331 -0.104341 -0.126031 -0.0265387 -0.0356685 -0.0612715 -0.078331 -0.0356685 -0.0455992 -0.078331 -0.0943369 0.122186 0.130585 0.146526 0.158349 0.130585 0.134855 0.158349 0.165588 0.158349 0.165588 0.182977 0.194223 0.146526 0.158349 0.167039 0.182977 -0.00170617 -0.016224 0.0350874 0.0196602 -0.0398482 -0.0539322 -0.00170617 -0.016224 -0.0539322 -0.0725781 -0.016224 -0.0355123 -0.016224 -0.0355123 0.0196602 -0.00023212 0.25706 0.307649 1 1 0.194128 0.25706 1 1 -0.0116434 0.0140628 0.194128 0.25706 0.0140628 0.0494908 0.25706 0.307649 -0.099238 -0.0799666 -0.0815594 -0.0651524 -0.118072 -0.099238 -0.0975953 -0.0815594 -0.133925 -0.112914 -0.118072 -0.099238 -0.112914 -0.0914799 -0.099238 -0.0799666 -0.110588 -0.0845802 -0.0941647 -0.0599042 -0.0845802 -0.055641 -0.0599042 -0.0258264 -0.0599042 -0.0258264 -0.0355123 -0.00023212 -0.0941647 -0.0599042 -0.0725781 -0.0355123 -0.0175272 -0.0636852 -0.0142424 -0.0553305 -0.0142424 -0.0553305 -0.0110865 -0.0455992 0 -0.0142424 0 -0.0110865 0 -0.0175272 0 -0.0142424 -0.0220605 -0.0285382 0 0 -0.0455703 -0.0562749 -0.0220605 -0.0285382 -0.0562749 -0.064672 -0.0285382 -0.0336455 -0.0285382 -0.0336455 0 0 -0.0773743 -0.0697252 -0.108916 -0.0973395 -0.108916 -0.0973395 -0.135659 -0.120271 -0.118648 -0.108916 -0.148945 -0.135659 -0.0836914 -0.0773743 -0.118648 -0.108916 -0.0699224 -0.0295271 -0.062561 -0.0219774 -0.112038 -0.0699224 -0.104489 -0.062561 -0.122034 -0.0800826 -0.112038 -0.0699224 -0.0800826 -0.0398482 -0.0699224 -0.0295271 0.00169416 0.000291454 0 0 0.00133797 0.00169416 0 0 0.000783739 -0.000611452 0.00133797 0.00169416 -0.000611452 -0.0048409 0.00169416 0.000291454 -0.104795 -0.0717114 -0.103125 -0.0699455 -0.103125 -0.0699455 -0.0969703 -0.064672 -0.137533 -0.103125 -0.131877 -0.0969703 -0.137862 -0.104795 -0.137533 -0.103125 -0.00176241 -0.00764993 -0.0003786 -0.00297688 -0.0003786 -0.00297688 0.000911828 0.00158593 0 -0.0003786 0 0.000911828 0 -0.00176241 0 -0.0003786 -0.15047 -0.12446 -0.16207 -0.133282 -0.16207 -0.133282 -0.169357 -0.137862 -0.185205 -0.16207 -0.195304 -0.169357 -0.170998 -0.15047 -0.185205 -0.16207 -0.226577 -0.217437 -0.225936 -0.212947 -0.220945 -0.218101 -0.226577 -0.217437 -0.218101 -0.197181 -0.217437 -0.191362 -0.217437 -0.191362 -0.212947 -0.184514 -0.0836914 -0.0466845 -0.0773743 -0.0434213 -0.0466845 -0.00940965 -0.0434213 -0.00892704 -0.0434213 -0.00892704 -0.0395419 -0.00863436 -0.0773743 -0.0434213 -0.0697252 -0.0395419 -0.00776065 -0.0206815 -0.00398985 -0.0120044 -0.0126001 -0.0316972 -0.00776065 -0.0206815 -0.0316972 -0.0590619 -0.0206815 -0.0403803 -0.0206815 -0.0403803 -0.0120044 -0.0252705 -0.216969 -0.220796 -0.191768 -0.199496 -0.205557 -0.216969 -0.176517 -0.191768 -0.220945 -0.226577 -0.205557 -0.216969 -0.226577 -0.225936 -0.216969 -0.220796 0.0269738 0.0615912 0.0247169 0.0564146 0.0247169 0.0564146 0.0214863 0.0495774 -0.00892704 0.0247169 -0.00863436 0.0214863 -0.00940965 0.0269738 -0.00892704 0.0247169 -0.0800826 -0.0938264 -0.0398482 -0.0539322 -0.122034 -0.134474 -0.0800826 -0.0938264 -0.134474 -0.147189 -0.0938264 -0.110749 -0.0938264 -0.110749 -0.0539322 -0.0725781 -0.198838 -0.198538 -0.211419 -0.210633 -0.183151 -0.182764 -0.198838 -0.198538 -0.182764 -0.170998 -0.198538 -0.185205 -0.198538 -0.185205 -0.210633 -0.195304 0.0147663 0.0342725 0.0122735 0.0272004 0.0122735 0.0272004 0.0103626 0.0207816 -0.00463727 0.0122735 -0.00195793 0.0103626 -0.00675546 0.0147663 -0.00463727 0.0122735 0.0936145 0.122186 0.085212 0.11023 0.085212 0.11023 0.0745809 0.0955769 0.0564146 0.085212 0.0495774 0.0745809 0.0615912 0.0936145 0.0564146 0.085212 -0.0553305 -0.10672 -0.0455992 -0.0943369 -0.0636852 -0.11337 -0.0553305 -0.10672 -0.11337 -0.145204 -0.10672 -0.148888 -0.10672 -0.148888 -0.0943369 -0.142004 -0.0398482 -0.00170617 -0.0295271 0.00922521 -0.00170617 0.0350874 0.00922521 0.0470072 0.00922521 0.0470072 0.0173528 0.0558327 -0.0295271 0.00922521 -0.0219774 0.0173528 -0.205557 -0.176517 -0.185403 -0.153689 -0.185403 -0.153689 -0.156293 -0.124423 -0.206866 -0.185403 -0.182334 -0.156293 -0.220945 -0.205557 -0.206866 -0.185403 8.82434e-05 -0.00109701 0.000503903 0.000783739 0 8.82434e-05 0 0.000503903 0 -0.000582453 0 8.82434e-05 -0.000582453 -0.00398985 8.82434e-05 -0.00109701 0.0645258 0.0616713 0.100919 0.0991012 0.0616713 0.0558327 0.0991012 0.093525 0.0991012 0.093525 0.134706 0.130074 0.100919 0.0991012 0.134855 0.134706 0.0745809 0.0955769 0.0626968 0.0792967 0.0626968 0.0792967 0.0505523 0.0625233 0.0419201 0.0626968 0.0342725 0.0505523 0.0495774 0.0745809 0.0419201 0.0626968 0.303965 0.215167 0.329182 0.232679 0.274849 0.193348 0.303965 0.215167 0.193348 0.167039 0.215167 0.182977 0.215167 0.182977 0.232679 0.194223 -0.0222539 -0.00463727 -0.0150432 -0.00195793 -0.0392634 -0.0222539 -0.0277667 -0.0150432 -0.0504164 -0.0289649 -0.0392634 -0.0222539 -0.0289649 -0.00675546 -0.0222539 -0.00463727 -0.0697252 -0.0395419 -0.0606847 -0.0347612 -0.0395419 -0.00863436 -0.0347612 -0.00803939 -0.0347612 -0.00803939 -0.0289649 -0.00675546 -0.0606847 -0.0347612 -0.0504164 -0.0289649 -0.00533183 -0.0134862 -0.000611452 -0.0048409 -0.00109701 -0.00533183 0.000783739 -0.000611452 -0.00398985 -0.0120044 -0.00109701 -0.00533183 -0.0120044 -0.0252705 -0.00533183 -0.0134862 -0.153597 -0.133925 -0.135481 -0.118072 -0.135481 -0.118072 -0.112242 -0.0975953 -0.15047 -0.135481 -0.12446 -0.112242 -0.170998 -0.153597 -0.15047 -0.135481 -0.065273 -0.0336352 -0.070015 -0.0365792 -0.0336352 0 -0.0365792 0 -0.0365792 0 -0.0377489 0 -0.070015 -0.0365792 -0.0717114 -0.0377489 0.16793 0.165323 0.200539 0.201932 0.165588 0.16793 0.194223 0.200539 0.134855 0.134706 0.165588 0.16793 0.134706 0.130074 0.16793 0.165323 -0.00399886 -0.0188004 -0.00255227 -0.0126001 0 -0.00399886 0 -0.00255227 0 -0.00588602 0 -0.00399886 -0.00588602 -0.0265387 -0.00399886 -0.0188004 -0.00826013 -0.0110865 -0.0356685 -0.0455992 -0.00588602 -0.00826013 -0.0265387 -0.0356685 0 0 -0.00588602 -0.00826013 0 0 -0.00826013 -0.0110865 -0.0223978 -0.0148206 -0.00991176 -0.00610632 -0.00991176 -0.00610632 0 0 -0.0143893 -0.00991176 0 0 -0.0310079 -0.0223978 -0.0143893 -0.00991176 -0.0495521 -0.0402498 -0.0244883 -0.0193432 -0.0402498 -0.0310079 -0.0193432 -0.0143893 -0.0193432 -0.0143893 0 0 -0.0244883 -0.0193432 0 0 0.15792 0.198595 0.165323 0.201932 0.121064 0.15792 0.130074 0.165323 0.10788 0.146008 0.121064 0.15792 0.146008 0.190797 0.15792 0.198595 0.38761 0.632887 0.379629 0.625763 0.632887 1 0.625763 1 0.625763 1 0.614439 1 0.379629 0.625763 0.367122 0.614439 -0.0975953 -0.0815594 -0.074285 -0.0614227 -0.0815594 -0.0651524 -0.0614227 -0.0483796 -0.0614227 -0.0483796 -0.0402498 -0.0310079 -0.074285 -0.0614227 -0.0495521 -0.0402498 -0.112242 -0.0975953 -0.0860171 -0.074285 -0.0860171 -0.074285 -0.0581743 -0.0495521 -0.0956113 -0.0860171 -0.065273 -0.0581743 -0.12446 -0.112242 -0.0956113 -0.0860171 -0.00297688 -0.00819948 0.00