# vtk DataFile Version 3.0
#This file was generated by the deal.II library on 2020/12/25 at 19:58:13
ASCII
DATASET UNSTRUCTURED_GRID

POINTS 39504 double
0.458332 0.541659 0
0.499999 0.541659 0
0.458332 0.583326 0
0.499999 0.583326 0
0.416666 0.541659 0
0.458332 0.541659 0
0.416666 0.583326 0
0.458332 0.583326 0
0.416666 0.499992 0
0.458332 0.499992 0
0.416666 0.541659 0
0.458332 0.541659 0
0.458332 0.499992 0
0.499999 0.499992 0
0.458332 0.541659 0
0.499999 0.541659 0
0.541666 0.624993 0
0.583332 0.624993 0
0.541666 0.66666 0
0.583332 0.66666 0
0.499999 0.624993 0
0.541666 0.624993 0
0.499999 0.66666 0
0.541666 0.66666 0
0.499999 0.583326 0
0.541666 0.583326 0
0.499999 0.624993 0
0.541666 0.624993 0
0.541666 0.583326 0
0.583332 0.583326 0
0.541666 0.624993 0
0.583332 0.624993 0
0.499999 0.541659 0
0.541666 0.541659 0
0.499999 0.583326 0
0.541666 0.583326 0
0.499999 0.499992 0
0.541666 0.499992 0
0.499999 0.541659 0
0.541666 0.541659 0
0.541666 0.499992 0
0.583332 0.499992 0
0.541666 0.541659 0
0.583332 0.541659 0
0.541666 0.541659 0
0.583332 0.541659 0
0.541666 0.583326 0
0.583332 0.583326 0
0.499999 0.458326 0
0.499999 0.416659 0
0.541666 0.458326 0
0.541666 0.416659 0
0.541666 0.458326 0
0.541666 0.416659 0
0.583332 0.458326 0
0.583332 0.416659 0
0.541666 0.499992 0
0.541666 0.458326 0
0.583332 0.499992 0
0.583332 0.458326 0
0.499999 0.499992 0
0.499999 0.458326 0
0.541666 0.499992 0
0.541666 0.458326 0
0.499999 0.374993 0
0.541666 0.374993 0
0.499999 0.416659 0
0.541666 0.416659 0
0.499999 0.333326 0
0.541666 0.333326 0
0.499999 0.374993 0
0.541666 0.374993 0
0.541666 0.333326 0
0.583332 0.333327 0
0.541666 0.374993 0
0.583332 0.374993 0
0.541666 0.374993 0
0.583332 0.374993 0
0.541666 0.416659 0
0.583332 0.416659 0
0.458332 0.499992 0
0.458332 0.458326 0
0.499999 0.499992 0
0.499999 0.458326 0
0.416666 0.499992 0
0.416666 0.458326 0
0.458332 0.499992 0
0.458332 0.458326 0
0.416666 0.458326 0
0.416666 0.416659 0
0.458332 0.458326 0
0.458332 0.416659 0
0.458332 0.458326 0
0.458332 0.416659 0
0.499999 0.458326 0
0.499999 0.416659 0
0.499999 0.29166 0
0.499999 0.249994 0
0.541666 0.29166 0
0.541666 0.249994 0
0.541666 0.333326 0
0.541666 0.29166 0
0.583332 0.333327 0
0.583333 0.29166 0
0.499999 0.333326 0
0.499999 0.29166 0
0.541666 0.333326 0
0.541666 0.29166 0
0.249999 0.499994 0
0.208333 0.499995 0
0.249999 0.458327 0
0.208333 0.458328 0
0.708333 0.458327 0
0.708333 0.41666 0
0.749999 0.458328 0
0.749999 0.416661 0
0.708332 0.499994 0
0.708333 0.458327 0
0.749999 0.499994 0
0.749999 0.458328 0
0.666666 0.499993 0
0.666666 0.458327 0
0.708332 0.499994 0
0.708333 0.458327 0
0.666666 0.458327 0
0.666666 0.41666 0
0.708333 0.458327 0
0.708333 0.41666 0
0.416666 0.583326 0
0.458332 0.583326 0
0.416666 0.624993 0
0.458332 0.624993 0
0.458332 0.583326 0
0.499999 0.583326 0
0.458332 0.624993 0
0.499999 0.624993 0
0.458332 0.624993 0
0.499999 0.624993 0
0.458332 0.66666 0
0.499999 0.66666 0
0.416666 0.624993 0
0.458332 0.624993 0
0.416666 0.66666 0
0.458332 0.66666 0
0.458333 0.708327 0
0.499999 0.708327 0
0.458333 0.749994 0
0.499999 0.749994 0
0.416666 0.708327 0
0.458333 0.708327 0
0.416666 0.749994 0
0.458333 0.749994 0
0.416666 0.66666 0
0.458332 0.66666 0
0.416666 0.708327 0
0.458333 0.708327 0
0.458332 0.66666 0
0.499999 0.66666 0
0.458333 0.708327 0
0.499999 0.708327 0
0.458332 0.333326 0
0.499999 0.333326 0
0.458332 0.374993 0
0.499999 0.374993 0
0.458332 0.374993 0
0.499999 0.374993 0
0.458332 0.416659 0
0.499999 0.416659 0
0.416666 0.374993 0
0.458332 0.374993 0
0.416666 0.416659 0
0.458332 0.416659 0
0.416666 0.333327 0
0.458332 0.333326 0
0.416666 0.374993 0
0.458332 0.374993 0
0.374999 0.374993 0
0.374999 0.416659 0
0.333332 0.374993 0
0.333332 0.41666 0
0.374999 0.333327 0
0.374999 0.374993 0
0.333333 0.333327 0
0.333332 0.374993 0
0.416666 0.333327 0
0.416666 0.374993 0
0.374999 0.333327 0
0.374999 0.374993 0
0.416666 0.374993 0
0.416666 0.416659 0
0.374999 0.374993 0
0.374999 0.416659 0
0.791666 0.791664 0
0.791666 0.833331 0
0.75 0.791663 0
0.75 0.83333 0
0.791666 0.749997 0
0.791666 0.791664 0
0.749999 0.749996 0
0.75 0.791663 0
0.291666 0.624994 0
0.291666 0.666661 0
0.249999 0.624995 0
0.249999 0.666662 0
0.291666 0.583327 0
0.291666 0.624994 0
0.249999 0.583328 0
0.249999 0.624995 0
0.333332 0.583326 0
0.333332 0.624994 0
0.291666 0.583327 0
0.291666 0.624994 0
0.333332 0.624994 0
0.333333 0.666661 0
0.291666 0.624994 0
0.291666 0.666661 0
0.416666 0.333327 0
0.374999 0.333327 0
0.416666 0.29166 0
0.374999 0.291661 0
0.374999 0.333327 0
0.333333 0.333327 0
0.374999 0.291661 0
0.333333 0.291661 0
0.416666 0.29166 0
0.374999 0.291661 0
0.416666 0.249994 0
0.374999 0.249995 0
0.624999 0.66666 0
0.624999 0.708328 0
0.583332 0.66666 0
0.583333 0.708327 0
0.666666 0.666661 0
0.666666 0.708328 0
0.624999 0.66666 0
0.624999 0.708328 0
0.666666 0.708328 0
0.666666 0.749995 0
0.624999 0.708328 0
0.624999 0.749995 0
0.624999 0.708328 0
0.624999 0.749995 0
0.583333 0.708327 0
0.583333 0.749995 0
0.666666 0.374994 0
0.708333 0.374994 0
0.666666 0.41666 0
0.708333 0.41666 0
0.666666 0.333327 0
0.708333 0.333328 0
0.666666 0.374994 0
0.708333 0.374994 0
0.708333 0.374994 0
0.749999 0.374995 0
0.708333 0.41666 0
0.749999 0.416661 0
0.333333 0.333327 0
0.333332 0.374993 0
0.291666 0.333328 0
0.291666 0.374994 0
0.333332 0.374993 0
0.333332 0.41666 0
0.291666 0.374994 0
0.291666 0.41666 0
0.291666 0.374994 0
0.291666 0.41666 0
0.249999 0.374994 0
0.249999 0.416661 0
0.291666 0.333328 0
0.291666 0.374994 0
0.249999 0.333328 0
0.249999 0.374994 0
0.791666 0.70833 0
0.791666 0.749997 0
0.749999 0.708329 0
0.749999 0.749996 0
0.791666 0.666663 0
0.791666 0.70833 0
0.749999 0.666662 0
0.749999 0.708329 0
0.333333 0.749995 0
0.333333 0.791662 0
0.291666 0.749995 0
0.291666 0.791663 0
0.666666 0.458327 0
0.624999 0.458326 0
0.666666 0.41666 0
0.624999 0.41666 0
0.666666 0.499993 0
0.624999 0.499993 0
0.666666 0.458327 0
0.624999 0.458326 0
0.624999 0.499993 0
0.583332 0.499992 0
0.624999 0.458326 0
0.583332 0.458326 0
0.624999 0.458326 0
0.583332 0.458326 0
0.624999 0.41666 0
0.583332 0.416659 0
0.291666 0.499994 0
0.249999 0.499994 0
0.291666 0.458327 0
0.249999 0.458327 0
0.291666 0.458327 0
0.249999 0.458327 0
0.291666 0.41666 0
0.249999 0.416661 0
0.333332 0.458326 0
0.291666 0.458327 0
0.333332 0.41666 0
0.291666 0.41666 0
0.333332 0.499993 0
0.291666 0.499994 0
0.333332 0.458326 0
0.291666 0.458327 0
0.333333 0.333327 0
0.291666 0.333328 0
0.333333 0.291661 0
0.291666 0.291661 0
0.708333 0.666661 0
0.749999 0.666662 0
0.708333 0.708328 0
0.749999 0.708329 0
0.708333 0.708328 0
0.749999 0.708329 0
0.708333 0.749996 0
0.749999 0.749996 0
0.666666 0.708328 0
0.708333 0.708328 0
0.666666 0.749995 0
0.708333 0.749996 0
0.666666 0.666661 0
0.708333 0.666661 0
0.666666 0.708328 0
0.708333 0.708328 0
0.416666 0.791662 0
0.416666 0.833329 0
0.374999 0.791662 0
0.374999 0.83333 0
0.374999 0.749995 0
0.374999 0.791662 0
0.333333 0.749995 0
0.333333 0.791662 0
0.416666 0.749994 0
0.416666 0.791662 0
0.374999 0.749995 0
0.374999 0.791662 0
0.791666 0.499995 0
0.749999 0.499994 0
0.791666 0.458328 0
0.749999 0.458328 0
0.791666 0.541662 0
0.791666 0.583329 0
0.749999 0.541661 0
0.749999 0.583328 0
0.791666 0.499995 0
0.791666 0.541662 0
0.749999 0.499994 0
0.749999 0.541661 0
0.416666 0.0833311 0
0.375 0.0833312 0
0.416667 0.0416656 0
0.375 0.0416656 0
0.416667 0.0416656 0
0.375 0.0416656 0
0.416667 0 0
0.375 0 0
0.416666 0.749994 0
0.458333 0.749994 0
0.416666 0.791662 0
0.458333 0.791662 0
0.458333 0.749994 0
0.499999 0.749994 0
0.458333 0.791662 0
0.499999 0.791662 0
0.458333 0.791662 0
0.499999 0.791662 0
0.458333 0.833329 0
0.499999 0.833329 0
0.416666 0.791662 0
0.458333 0.791662 0
0.416666 0.833329 0
0.458333 0.833329 0
0.666666 0.624994 0
0.708333 0.624994 0
0.666666 0.666661 0
0.708333 0.666661 0
0.666666 0.583327 0
0.708333 0.583327 0
0.666666 0.624994 0
0.708333 0.624994 0
0.708333 0.583327 0
0.749999 0.583328 0
0.708333 0.624994 0
0.749999 0.624995 0
0.708333 0.624994 0
0.749999 0.624995 0
0.708333 0.666661 0
0.749999 0.666662 0
0.791666 0.624996 0
0.791666 0.666663 0
0.749999 0.624995 0
0.749999 0.666662 0
0.791666 0.583329 0
0.791666 0.624996 0
0.749999 0.583328 0
0.749999 0.624995 0
0.374999 0.499993 0
0.333332 0.499993 0
0.374999 0.458326 0
0.333332 0.458326 0
0.374999 0.458326 0
0.333332 0.458326 0
0.374999 0.416659 0
0.333332 0.41666 0
0.416666 0.458326 0
0.374999 0.458326 0
0.416666 0.416659 0
0.374999 0.416659 0
0.416666 0.499992 0
0.374999 0.499993 0
0.416666 0.458326 0
0.374999 0.458326 0
0.624999 0.54166 0
0.624999 0.583326 0
0.583332 0.541659 0
0.583332 0.583326 0
0.624999 0.499993 0
0.624999 0.54166 0
0.583332 0.499992 0
0.583332 0.541659 0
0.666666 0.499993 0
0.666666 0.54166 0
0.624999 0.499993 0
0.624999 0.54166 0
0.666666 0.54166 0
0.666666 0.583327 0
0.624999 0.54166 0
0.624999 0.583326 0
0.624999 0.333327 0
0.624999 0.374993 0
0.583332 0.333327 0
0.583332 0.374993 0
0.666666 0.333327 0
0.666666 0.374994 0
0.624999 0.333327 0
0.624999 0.374993 0
0.666666 0.374994 0
0.666666 0.41666 0
0.624999 0.374993 0
0.624999 0.41666 0
0.624999 0.374993 0
0.624999 0.41666 0
0.583332 0.374993 0
0.583332 0.416659 0
0.416666 0.499992 0
0.416666 0.541659 0
0.374999 0.499993 0
0.374999 0.541659 0
0.416666 0.541659 0
0.416666 0.583326 0
0.374999 0.541659 0
0.374999 0.583326 0
0.374999 0.541659 0
0.374999 0.583326 0
0.333332 0.54166 0
0.333332 0.583326 0
0.374999 0.499993 0
0.374999 0.541659 0
0.333332 0.499993 0
0.333332 0.54166 0
0.666666 0.333327 0
0.624999 0.333327 0
0.666666 0.291661 0
0.624999 0.291661 0
0.624999 0.333327 0
0.583332 0.333327 0
0.624999 0.291661 0
0.583333 0.29166 0
0.416666 0.624993 0
0.416666 0.66666 0
0.374999 0.624993 0
0.374999 0.66666 0
0.374999 0.624993 0
0.374999 0.66666 0
0.333332 0.624994 0
0.333333 0.666661 0
0.374999 0.583326 0
0.374999 0.624993 0
0.333332 0.583326 0
0.333332 0.624994 0
0.416666 0.583326 0
0.416666 0.624993 0
0.374999 0.583326 0
0.374999 0.624993 0
[...]
POINT_DATA 39504
SCALARS solution_0 double 1
LOOKUP_TABLE default
-0.0200247 -0.0236656 0.0209983 0.0175789 -0.0169271 -0.0200247 0.0236052 0.0209983 -0.0570241 -0.0604765 -0.0169271 -0.0200247 -0.0604765 -0.0642368 -0.0200247 -0.0236656 0.0554373 0.0493547 0.0996517 0.0932947 0.0599069 0.0554373 0.103952 0.0996517 0.0175789 0.0130918 0.0599069 0.0554373 0.0130918 0.00738678 0.0554373 0.0493547 -0.0236656 -0.0280544 0.0175789 0.0130918 -0.0642368 -0.0684571 -0.0236656 -0.0280544 -0.0684571 -0.0732324 -0.0280544 -0.0333145 -0.0280544 -0.0333145 0.0130918 0.00738678 -0.104316 -0.143902 -0.108309 -0.147536 -0.108309 -0.147536 -0.112542 -0.151124 -0.0684571 -0.108309 -0.0732324 -0.112542 -0.0642368 -0.104316 -0.0684571 -0.108309 -0.183339 -0.18638 -0.143902 -0.147536 -0.224327 -0.226812 -0.183339 -0.18638 -0.226812 -0.229619 -0.18638 -0.189359 -0.18638 -0.189359 -0.147536 -0.151124 -0.0604765 -0.100533 -0.0642368 -0.104316 -0.0570241 -0.0969049 -0.0604765 -0.100533 -0.0969049 -0.136857 -0.100533 -0.140307 -0.100533 -0.140307 -0.104316 -0.143902 -0.269991 -0.320605 -0.2719 -0.322919 -0.226812 -0.2719 -0.229619 -0.275296 -0.224327 -0.269991 -0.226812 -0.2719 -0.0444537 -0.0399466 -0.0838691 -0.0776409 -0.124907 -0.161093 -0.128969 -0.165882 -0.0894217 -0.124907 -0.0944223 -0.128969 -0.0840762 -0.121107 -0.0894217 -0.124907 -0.121107 -0.157686 -0.124907 -0.161093 0.0236052 0.0209983 0.0649327 0.0629632 0.0209983 0.0175789 0.0629632 0.0599069 0.0629632 0.0599069 0.106476 0.103952 0.0649327 0.0629632 0.107624 0.106476 0.152319 0.150555 0.201014 0.20041 0.152302 0.152319 0.199121 0.201014 0.107624 0.106476 0.152302 0.152319 0.106476 0.103952 0.152319 0.150555 -0.222351 -0.224327 -0.180339 -0.183339 -0.180339 -0.183339 -0.140307 -0.143902 -0.177672 -0.180339 -0.136857 -0.140307 -0.221027 -0.222351 -0.177672 -0.180339 -0.175641 -0.133789 -0.17411 -0.131301 -0.220224 -0.175641 -0.218985 -0.17411 -0.221027 -0.177672 -0.220224 -0.175641 -0.177672 -0.136857 -0.175641 -0.133789 0.129084 0.169758 0.164983 0.210163 0.0923803 0.129084 0.122263 0.164983 0.0681131 0.106187 0.0677782 0.102785 0.0297944 0.0681131 0.0313106 0.0677782 0.0277914 0.0673399 0.0297944 0.0681131 0.0673399 0.107502 0.0681131 0.106187 -0.221027 -0.220224 -0.268293 -0.267336 -0.220224 -0.218985 -0.267336 -0.263772 -0.268293 -0.267336 -0.31661 -0.312508 0.0846856 0.130652 0.0932947 0.140062 0.0736699 0.118049 0.0846856 0.130652 0.118049 0.165724 0.130652 0.180111 0.130652 0.180111 0.140062 0.190369 -0.195697 -0.200514 -0.157686 -0.161093 -0.23823 -0.245392 -0.195697 -0.200514 -0.200514 -0.208143 -0.161093 -0.165882 -0.218985 -0.17411 -0.214847 -0.17159 -0.17411 -0.131301 -0.17159 -0.12884 -0.17159 -0.12884 -0.16542 -0.124297 -0.214847 -0.17159 -0.205105 -0.16542 0.0580505 0.0923803 0.08198 0.122263 0.0254462 0.0580505 0.0440583 0.08198 0.187908 0.225052 0.177921 0.208123 -0.121107 -0.116903 -0.157686 -0.154546 -0.0840762 -0.0785229 -0.121107 -0.116903 -0.0785229 -0.0732324 -0.116903 -0.112542 -0.116903 -0.112542 -0.154546 -0.151124 -0.0477083 -0.0444537 -0.0875961 -0.0838691 -0.0875961 -0.0838691 -0.12884 -0.124297 -0.0904009 -0.0875961 -0.131301 -0.12884 -0.0506492 -0.0477083 -0.0904009 -0.0875961 -0.218985 -0.214847 -0.263772 -0.255654 0.0601325 0.0440583 0.101923 0.08198 0.101923 0.08198 0.146625 0.122263 0.118049 0.101923 0.165724 0.146625 0.0736699 0.0601325 0.118049 0.101923 0.24655 0.291621 0.237644 0.277032 0.194858 0.237644 0.187908 0.225052 0.199121 0.24655 0.194858 0.237644 -0.10024 -0.0944223 -0.135161 -0.128969 -0.0679319 -0.0369018 -0.0606967 -0.0267315 -0.10024 -0.0679319 -0.0944223 -0.0606967 -0.209046 -0.184665 -0.106221 -0.0884466 -0.106221 -0.0884466 0 0 0.199121 0.201014 0.24655 0.251592 0.201014 0.20041 0.251592 0.252986 0.251592 0.252986 0.301109 0.305499 0.24655 0.251592 0.291621 0.301109 0.0319892 0.0207318 0.0736699 0.0601325 -0.00778836 -0.016983 0.0319892 0.0207318 -0.016983 -0.0267315 0.0207318 0.00801604 0.0207318 0.00801604 0.0601325 0.0440583 -0.00600046 0.0254462 0.00801604 0.0440583 -0.0369018 -0.00600046 -0.0267315 0.00801604 -0.0537573 -0.0506492 -0.0934781 -0.0904009 -0.0934781 -0.0904009 -0.133789 -0.131301 -0.0969049 -0.0934781 -0.136857 -0.133789 -0.0570241 -0.0537573 -0.0969049 -0.0934781 -0.0394606 0.000408181 -0.0333145 0.00738678 -0.0785229 -0.0394606 -0.0732324 -0.0333145 -0.0840762 -0.0463449 -0.0785229 -0.0394606 -0.0463449 -0.00778836 -0.0394606 0.000408181 -0.233216 -0.192306 -0.229619 -0.189359 -0.23823 -0.195697 -0.233216 -0.192306 -0.195697 -0.157686 -0.192306 -0.154546 -0.192306 -0.154546 -0.189359 -0.151124 -0.0570241 -0.0169271 -0.0537573 -0.0141238 -0.0169271 0.0236052 -0.0141238 0.0257568 -0.0141238 0.0257568 -0.0114055 0.0277914 -0.0537573 -0.0141238 -0.0506492 -0.0114055 -0.23823 -0.233216 -0.287206 -0.280287 -0.233216 -0.229619 -0.280287 -0.275296 0.0649327 0.107624 0.0662613 0.107865 0.0662613 0.107865 0.0673399 0.107502 0.0257568 0.0662613 0.0277914 0.0673399 0.0236052 0.0649327 0.0257568 0.0662613 -0.0463449 -0.0535946 -0.00778836 -0.016983 -0.0840762 -0.0894217 -0.0463449 -0.0535946 -0.0894217 -0.0944223 -0.0535946 -0.0606967 -0.0535946 -0.0606967 -0.016983 -0.0267315 -0.222351 -0.268836 -0.224327 -0.269991 -0.221027 -0.268293 -0.222351 -0.268836 -0.268293 -0.31661 -0.268836 -0.318751 -0.268836 -0.318751 -0.269991 -0.320605 0.0313106 0.0677782 0.031924 0.0656213 0.152302 0.199121 0.150865 0.194858 0.150865 0.194858 0.148006 0.187908 0.107865 0.150865 0.107502 0.148006 0.107624 0.152302 0.107865 0.150865 -0.00778836 0.0319892 0.000408181 0.0415505 0.0319892 0.0736699 0.0415505 0.0846856 0.0415505 0.0846856 0.0493547 0.0932947 0.000408181 0.0415505 0.00738678 0.0493547 0.103952 0.0996517 0.150555 0.146591 0.0996517 0.0932947 0.146591 0.140062 0.146591 0.140062 0.196994 0.190369 0.150555 0.146591 0.20041 0.196994 0.148006 0.187908 0.143172 0.177921 0.106187 0.143172 0.102785 0.135772 0.107502 0.148006 0.106187 0.143172 0.34386 0.301109 0.352017 0.305499 -0.0444537 -0.00610836 -0.0399466 -0.00334763 -0.00610836 0.0313106 -0.00334763 0.031924 -0.0506492 -0.0114055 -0.0477083 -0.00872845 -0.0114055 0.0277914 -0.00872845 0.0297944 -0.00872845 0.0297944 -0.00610836 0.0313106 -0.0477083 -0.00872845 -0.0444537 -0.00610836 -0.209046 -0.106221 -0.223451 -0.119058 -0.106221 0 -0.119058 0 0.250549 0.24401 0.30468 0.298481 0.252986 0.250549 0.305499 0.30468 0.20041 0.196994 0.252986 0.250549 0.196994 0.190369 0.250549 0.24401 0.23287 0.286476 0.24401 0.298481 0.180111 0.23287 0.190369 0.24401 0.165724 0.216426 0.180111 0.23287 0.216426 0.26816 0.23287 0.286476 0.194017 0.164983 0.242878 0.210163 0.216426 0.194017 0.26816 0.242878 0.165724 0.146625 0.216426 0.194017 0.146625 0.122263 0.194017 0.164983 0.336596 0.348351 0.286476 0.298481 0.352017 0.305499 0.353404 0.30468 0.353404 0.30468 0.348351 0.298481 0.274089 0.249688 0.276047 0.254411 0.249688 0.22296 0.254411 0.230556 0.276047 0.254411 0.273626 0.254827 0.254411 0.230556 0.254827 0.233957 0.22296 0.194069 0.230556 0.204625 0.194069 0.163287 0.204625 0.176853 0.230556 0.204625 0.233957 0.211132 0.204625 0.176853 0.211132 0.186535 0.163287 0.131031 0.176853 0.147612 0.131031 0.0979096 0.147612 0.117434 0.176853 0.147612 0.186535 0.160463 0.147612 0.117434 0.160463 0.133349 0.0979096 0.0647808 0.117434 0.0870714 0.0647808 0.0328138 0.0870714 0.0575614 0.117434 0.0870714 0.133349 0.105787 0.0870714 0.0575614 0.105787 0.0785958 0.347682 0.332832 0.339776 0.3272 0.332832 0.315655 0.3272 0.312427 0.339776 0.3272 0.327863 0.317305 0.3272 0.312427 0.317305 0.304813 0.315655 0.296084 0.312427 0.295391 0.296084 0.274089 0.295391 0.276047 0.312427 0.295391 0.304813 0.290283 0.295391 0.276047 0.290283 0.273626 0.0585536 0.0729927 0.0759079 0.0922973 0.0729927 0.0882415 0.0922973 0.109316 0.0759079 0.0922973 0.0923803 0.110732 0.0922973 0.109316 0.110732 0.129084 0.0882415 0.104852 0.109316 0.127443 0.104852 0.123537 0.127443 0.147292 0.109316 0.127443 0.129084 0.149421 0.127443 0.147292 0.149421 0.169758 -0.128668 -0.112091 -0.120473 -0.102998 -0.112091 -0.0964445 -0.102998 -0.0866212 -0.120473 -0.102998 -0.111652 -0.0943979 -0.102998 -0.0866212 -0.0943979 -0.0782105 -0.0211987 0.00689605 0.00352848 0.0302737 0.00689605 0.0300898 0.0302737 0.0528896 0.00352848 0.0302737 0.0328138 0.0575614 0.0302737 0.0528896 0.0575614 0.0785958 -0.0483761 -0.0207507 -0.0392911 -0.0107268 -0.0207507 -0.000505886 -0.0107268 0.0117818 -0.0392911 -0.0107268 -0.0211987 0.00689605 -0.0107268 0.0117818 0.00689605 0.0300898 0.22062 0.241059 0.193027 0.214487 0.241059 0.25992 0.214487 0.233687 0.193027 0.214487 0.169758 0.189961 0.214487 0.233687 0.189961 0.210163 0.174814 0.198588 0.14601 0.170216 0.198588 0.22062 0.170216 0.193027 0.14601 0.170216 0.123537 0.147292 0.170216 0.193027 0.147292 0.169758 0.00486708 0.0179914 0.0154124 0.0301911 0.0179914 0.0312401 0.0301911 0.0449718 0.0154124 0.0301911 0.0254462 0.0417484 0.0301911 0.0449718 0.0417484 0.0580505 0.0312401 0.0447079 0.0449718 0.0603327 0.0447079 0.0585536 0.0603327 0.0759079 0.0449718 0.0603327 0.0580505 0.0752154 0.0603327 0.0759079 0.0752154 0.0923803 -0.268348 -0.246832 -0.265034 -0.240556 -0.246832 -0.223291 -0.240556 -0.215683 -0.265034 -0.240556 -0.258819 -0.233186 -0.240556 -0.215683 -0.233186 -0.208143 -0.230806 -0.212457 -0.229675 -0.207255 -0.212457 -0.191961 -0.207255 -0.18447 -0.229675 -0.207255 -0.223291 -0.199427 -0.207255 -0.18447 -0.199427 -0.176448 -0.322919 -0.34885 -0.325168 -0.350548 -0.34885 -0.369012 -0.350548 -0.370254 -0.325168 -0.350548 -0.32739 -0.352529 -0.350548 -0.370254 -0.352529 -0.371193 -0.320605 -0.345567 -0.321762 -0.347023 -0.345567 -0.365604 -0.347023 -0.367483 -0.321762 -0.347023 -0.322919 -0.34885 -0.347023 -0.367483 -0.34885 -0.369012 -0.149784 -0.141809 -0.170619 -0.162431 -0.141809 -0.135161 -0.162431 -0.15513 -0.170619 -0.162431 -0.191961 -0.18447 -0.162431 -0.15513 -0.18447 -0.176448 -0.111652 -0.104929 -0.130116 -0.122593 -0.104929 -0.10024 -0.122593 -0.117701 -0.130116 -0.122593 -0.149784 -0.141809 -0.122593 -0.117701 -0.141809 -0.135161 -0.0488548 -0.0350094 -0.0424763 -0.027823 -0.0350094 -0.0215154 -0.027823 -0.0134939 -0.0424763 -0.027823 -0.0369018 -0.0214511 -0.027823 -0.0134939 -0.0214511 -0.00600046 -0.0215154 -0.00828024 -0.0134939 0.00103374 -0.00828024 0.00486708 0.00103374 0.0154124 -0.0134939 0.00103374 -0.00600046 0.00972287 0.00103374 0.0154124 0.00972287 0.0254462 -0.318751 -0.342403 -0.319678 -0.343983 -0.342403 -0.360604 -0.343983 -0.363388 -0.319678 -0.343983 -0.320605 -0.345567 -0.343983 -0.363388 -0.345567 -0.365604 -0.287206 -0.283746 -0.314873 -0.310279 -0.283746 -0.280287 -0.310279 -0.306679 -0.314873 -0.310279 -0.33897 -0.336143 -0.310279 -0.306679 -0.336143 -0.332911 -0.287206 -0.314873 -0.292991 -0.319167 -0.314873 -0.33897 -0.319167 -0.3405 -0.292991 -0.319167 -0.298464 -0.322472 -0.319167 -0.3405 -0.322472 -0.339496 -0.245392 -0.272028 -0.251953 -0.278274 -0.272028 -0.298464 -0.278274 -0.303053 -0.251953 -0.278274 -0.258819 -0.283802 -0.278274 -0.303053 -0.283802 -0.305392 0.370705 0.358504 0.379075 0.365172 0.358504 0.34386 0.365172 0.347939 0.379075 0.365172 0.385608 0.369671 0.365172 0.347939 0.369671 0.352017 0.347682 0.339776 0.360269 0.350217 0.339776 0.327863 0.350217 0.336552 0.360269 0.350217 0.370705 0.358504 0.350217 0.336552 0.358504 0.34386 0 -0.000475927 0 -0.000340666 -0.000475927 -0.00390376 -0.000340666 -0.00261814 0 -0.000340666 0 -4.05848e-05 -0.000340666 -0.00261814 -4.05848e-05 -0.00141865 0.31778 0.292873 0.305912 0.280944 0.292873 0.26816 0.280944 0.255519 0.305912 0.280944 0.292359 0.266969 0.280944 0.255519 0.266969 0.242878 0.292359 0.266969 0.276963 0.25139 0.266969 0.242878 0.25139 0.226521 0.276963 0.25139 0.25992 0.233687 0.25139 0.226521 0.233687 0.210163 0.31778 0.327846 0.292873 0.302864 0.327846 0.336596 0.302864 0.311536 0.292873 0.302864 0.26816 0.277318 0.302864 0.311536 0.277318 0.286476 0.375837 0.382717 0.343037 0.352299 0.382717 0.387843 0.352299 0.359847 0.343037 0.352299 0.31778 0.327846 0.352299 0.359847 0.327846 0.336596 0.387843 0.391436 0.359847 0.365726 0.391436 0.393574 0.365726 0.369825 0.359847 0.365726 0.336596 0.342474 0.365726 0.369825 0.342474 0.348351 0.393013 0.373201 0.394077 0.372415 0.373201 0.353404 0.372415 0.350877 0.394077 0.372415 0.393574 0.369825 0.372415 0.350877 0.369825 0.348351 0.385608 0.369671 0.39018 0.37238 0.369671 0.352017 0.37238 0.35271 0.39018 0.37238 0.393013 0.373201 0.37238 0.35271 0.373201 0.353404 -0.31661 -0.337683 -0.317681 -0.340345 -0.337683 -0.352425 -0.340345 -0.357062 -0.317681 -0.340345 -0.318751 -0.342403 -0.340345 -0.357062 -0.342403 -0.360604 -0.312508 -0.307922 -0.328897 -0.321964 -0.307922 -0.301829 -0.321964 -0.312753 -0.328897 -0.321964 -0.338467 -0.32837 -0.321964 -0.312753 -0.32837 -0.316081 -0.31661 -0.314559 -0.337683 -0.334022 -0.314559 -0.312508 -0.334022 -0.328897 -0.337683 -0.334022 -0.352425 -0.346336 -0.334022 -0.328897 -0.346336 -0.338467 0.0689919 0.0776401 0.0763151 0.0868426 0.0776401 0.0851788 0.0868426 0.0961044 0.0763151 0.0868426 0.0819337 0.0944103 0.0868426 0.0961044 0.0944103 0.105471 0.0819337 0.0944103 0.0856174 0.099987 0.0944103 0.105471 0.099987 0.11295 0.0856174 0.099987 0.086969 0.103254 0.099987 0.11295 0.103254 0.11816 0 0.00469935 0 0.00475608 0.00469935 0.0172737 0.00475608 0.0171654 0 0.00475608 0 0.00444037 0.00475608 0.0171654 0.00444037 0.0166585 -0.249902 -0.229464 -0.247787 -0.224843 -0.229464 -0.206596 -0.224843 -0.200055 -0.247787 -0.224843 -0.238837 -0.21411 -0.224843 -0.200055 -0.21411 -0.188156 -0.267005 -0.220574 -0.234584 -0.188639 -0.220574 -0.172517 -0.188639 -0.143488 -0.234584 -0.188639 -0.199253 -0.155714 -0.188639 -0.143488 -0.155714 -0.114806 -0.319049 -0.276349 -0.295225 -0.250102 -0.276349 -0.226788 -0.250102 -0.200671 -0.295225 -0.250102 -0.267005 -0.220574 -0.250102 -0.200671 -0.220574 -0.172517 -0.226788 -0.175998 -0.200671 -0.151844 -0.175998 -0.12806 -0.151844 -0.107138 -0.200671 -0.151844 -0.172517 -0.12687 -0.151844 -0.107138 -0.12687 -0.0862305 -0.172517 -0.12687 -0.143488 -0.102083 -0.12687 -0.0862305 -0.102083 -0.0661648 -0.143488 -0.102083 -0.114806 -0.0784873 -0.102083 -0.0661648 -0.0784873 -0.0477093 -0.0399466 -0.0369141 -0.0587937 -0.0549005 -0.0369141 -0.0332874 -0.0549005 -0.0499412 -0.0587937 -0.0549005 -0.0776409 -0.0727553 -0.0549005 -0.0499412 -0.0727553 -0.0666167 -0.0776409 -0.0727553 -0.0966652 -0.0907577 -0.0727553 -0.0666167 -0.0907577 -0.0831027 -0.0966652 -0.0907577 -0.115532 -0.10846 -0.0907577 -0.0831027 -0.10846 -0.0991326 0.133349 0.105787 0.144948 0.120217 0.105787 0.0785958 0.120217 0.0953439 0.144948 0.120217 0.152199 0.130261 0.120217 0.0953439 0.130261 0.107737 0.186535 0.160463 0.191831 0.168964 0.160463 0.133349 0.168964 0.144948 0.191831 0.168964 0.192952 0.173197 0.168964 0.144948 0.173197 0.152199 0 0 -0.00233906 -0.000268423 0 0 -0.000268423 0.000983533 -0.00233906 -0.000268423 -0.00622653 0.00059126 -0.000268423 0.000983533 0.00059126 0.00494145 -0.00622653 0.00059126 -0.00652711 0.00501351 0.00059126 0.00494145 0.00501351 0.0130591 -0.00652711 0.00501351 -0.000505886 0.0144764 0.00501351 0.0130591 0.0144764 0.0258799 -0.049656 -0.0623073 -0.0588649 -0.0735535 -0.0623073 -0.0742764 -0.0735535 -0.0876301 -0.0588649 -0.0735535 -0.0666167 -0.0831027 -0.0735535 -0.0876301 -0.0831027 -0.0991326 -0.0233602 -0.0365963 -0.0287483 -0.0438578 -0.0365963 -0.049656 -0.0438578 -0.0588649 -0.0287483 -0.0438578 -0.0332874 -0.0499412 -0.0438578 -0.0588649 -0.0499412 -0.0666167 -0.0106095 -0.0194361 -0.017215 -0.0283432 -0.0194361 -0.0280701 -0.0283432 -0.0392566 -0.017215 -0.0283432 -0.0233602 -0.0365963 -0.0283432 -0.0392566 -0.0365963 -0.049656 -0.0280701 -0.036315 -0.0392566 -0.0497369 -0.036315 -0.043956 -0.0497369 -0.059534 -0.0392566 -0.0497369 -0.049656 -0.0623073 -0.0497369 -0.059534 -0.0623073 -0.0742764 -0.00799385 -0.00512715 -0.0171063 -0.0116838 -0.00512715 -0.00260265 -0.0116838 -0.00675075 -0.0171063 -0.0116838 -0.0289855 -0.0207902 -0.0116838 -0.00675075 -0.0207902 -0.0131238 -0.000505886 0.0144764 0.0117818 0.0293286 0.0144764 0.0258799 0.0293286 0.0429475 0.0117818 0.0293286 0.0300898 0.0486709 0.0293286 0.0429475 0.0486709 0.0631429 0.0300898 0.0486709 0.0528896 0.0711285 0.0486709 0.0631429 0.0711285 0.0851126 0.0528896 0.0711285 0.0785958 0.0953439 0.0711285 0.0851126 0.0953439 0.107737 0.000831641 0.0014339 0.000519797 0.00233978 0.0014339 0.000849707 0.00233978 0.00272145 0.000519797 0.00233978 -0.00107961 0.00258438 0.00233978 0.00272145 0.00258438 0.00428644 -0.0634431 -0.0877287 -0.038469 -0.0570276 -0.0877287 -0.114806 -0.0570276 -0.0784873 -0.038469 -0.0570276 -0.0180774 -0.0315205 -0.0570276 -0.0784873 -0.0315205 -0.0477093 -0.0263367 -0.0428263 -0.0117226 -0.0233055 -0.0428263 -0.0634431 -0.0233055 -0.038469 -0.0117226 -0.0233055 -0.000209568 -0.00763395 -0.0233055 -0.038469 -0.00763395 -0.0180774 -0.0648755 -0.0935543 -0.0439406 -0.0661536 -0.0935543 -0.126735 -0.0661536 -0.0929066 -0.0439406 -0.0661536 -0.0263367 -0.0428263 -0.0661536 -0.0929066 -0.0428263 -0.0634431 -0.126735 -0.162709 -0.0929066 -0.123253 -0.162709 -0.199253 -0.123253 -0.155714 -0.0929066 -0.123253 -0.0634431 -0.0877287 -0.123253 -0.155714 -0.0877287 -0.114806 -0.235969 -0.221464 -0.245593 -0.228122 -0.221464 -0.203843 -0.228122 -0.20774 -0.245593 -0.228122 -0.249902 -0.229464 -0.228122 -0.20774 -0.229464 -0.206596 -0.205105 -0.195871 -0.222005 -0.210325 -0.195871 -0.183647 -0.210325 -0.195516 -0.222005 -0.210325 -0.235969 -0.221464 -0.210325 -0.195516 -0.221464 -0.203843 -0.183647 -0.16836 -0.195516 -0.177698 -0.16836 -0.150346 -0.177698 -0.157322 -0.195516 -0.177698 -0.203843 -0.183446 -0.177698 -0.157322 -0.183446 -0.160871 -0.203843 -0.183446 -0.20774 -0.184989 -0.183446 -0.160871 -0.184989 -0.160566 -0.20774 -0.184989 -0.206596 -0.181918 -0.184989 -0.160566 -0.181918 -0.156173 -0.202194 -0.24339 -0.163944 -0.203928 -0.24339 -0.280433 -0.203928 -0.242315 -0.163944 -0.203928 -0.126735 -0.162709 -0.203928 -0.242315 -0.162709 -0.199253 -0.118015 -0.159279 -0.0895951 -0.124972 -0.159279 -0.202194 -0.124972 -0.163944 -0.0895951 -0.124972 -0.0648755 -0.0935543 -0.124972 -0.163944 -0.0935543 -0.126735 -0.223291 -0.199427 -0.215683 -0.191956 -0.199427 -0.176448 -0.191956 -0.170242 -0.215683 -0.191956 -0.208143 -0.187013 -0.191956 -0.170242 -0.187013 -0.165882 -0.152248 -0.134216 -0.141652 -0.125576 -0.134216 -0.115532 -0.125576 -0.10846 -0.141652 -0.125576 -0.128292 -0.114341 -0.125576 -0.10846 -0.114341 -0.0991326 -0.183647 -0.168978 -0.16836 -0.15613 -0.168978 -0.152248 -0.15613 -0.141652 -0.16836 -0.15613 -0.150346 -0.140478 -0.15613 -0.141652 -0.140478 -0.128292 -0.205105 -0.185262 -0.195871 -0.178799 -0.185262 -0.16542 -0.178799 -0.159805 -0.195871 -0.178799 -0.183647 -0.168978 -0.178799 -0.159805 -0.168978 -0.152248 -0.16542 -0.144858 -0.159805 -0.140422 -0.144858 -0.124297 -0.140422 -0.120475 -0.159805 -0.140422 -0.152248 -0.134216 -0.140422 -0.120475 -0.134216 -0.115532 -0.0564935 -0.0759417 -0.0507622 -0.0683694 -0.0759417 -0.0948484 -0.0683694 -0.0852427 -0.0507622 -0.0683694 -0.043956 -0.059534 -0.0683694 -0.0852427 -0.059534 -0.0742764 -0.0948484 -0.112513 -0.0852427 -0.100752 -0.112513 -0.128292 -0.100752 -0.114341 -0.0852427 -0.100752 -0.0742764 -0.0876301 -0.100752 -0.114341 -0.0876301 -0.0991326 0.123446 0.134649 0.115158 0.124497 0.134649 0.143863 0.124497 0.131692 0.115158 0.124497 0.105471 0.11295 0.124497 0.131692 0.11295 0.11816 0.0965792 0.110648 0.0914835 0.104045 0.110648 0.123446 0.104045 0.115158 0.0914835 0.104045 0.0851788 0.0961044 0.104045 0.115158 0.0961044 0.105471 -0.0224104 -0.0229393 -0.0421057 -0.0428097 -0.0229393 -0.0221645 -0.0428097 -0.0420975 -0.0421057 -0.0428097 -0.0637736 -0.0649064 -0.0428097 -0.0420975 -0.0649064 -0.0642869 0.154655 0.155311 0.137934 0.136059 0.155311 0.152199 0.136059 0.130261 0.137934 0.136059 0.120091 0.115896 0.136059 0.130261 0.115896 0.107737 0.143863 0.150683 0.131692 0.136322 0.150683 0.154655 0.136322 0.137934 0.131