# vtk DataFile Version 3.0
#This file was generated by the deal.II library on 2020/11/19 at 14:49:41
ASCII
DATASET UNSTRUCTURED_GRID

POINTS 4416 double
0.125 0.124999 0
0.125 0.0833324 0
0.166666 0.124998 0
0.166667 0.0833322 0
0.125 0.166665 0
0.125 0.124999 0
0.166666 0.166664 0
0.166666 0.124998 0
0.0833332 0.166666 0
0.0833332 0.124999 0
0.125 0.166665 0
0.125 0.124999 0
0.0833332 0.124999 0
0.0833333 0.0833327 0
0.125 0.124999 0
0.125 0.0833324 0
0.458332 0.541659 0
0.499999 0.541659 0
0.458332 0.583326 0
0.499999 0.583326 0
0.416666 0.541659 0
0.458332 0.541659 0
0.416666 0.583326 0
0.458332 0.583326 0
0.416666 0.499992 0
0.458332 0.499992 0
0.416666 0.541659 0
0.458332 0.541659 0
0.458332 0.499992 0
0.499999 0.499992 0
0.458332 0.541659 0
0.499999 0.541659 0
0.541666 0.624993 0
0.583332 0.624993 0
0.541666 0.66666 0
0.583332 0.66666 0
0.499999 0.624993 0
0.541666 0.624993 0
0.499999 0.66666 0
0.541666 0.66666 0
0.499999 0.583326 0
0.541666 0.583326 0
0.499999 0.624993 0
0.541666 0.624993 0
0.541666 0.583326 0
0.583332 0.583326 0
0.541666 0.624993 0
0.583332 0.624993 0
0.499999 0.541659 0
0.541666 0.541659 0
0.499999 0.583326 0
0.541666 0.583326 0
0.499999 0.499992 0
0.541666 0.499992 0
0.499999 0.541659 0
0.541666 0.541659 0
0.541666 0.499992 0
0.583332 0.499992 0
0.541666 0.541659 0
0.583332 0.541659 0
0.541666 0.541659 0
0.583332 0.541659 0
0.541666 0.583326 0
0.583332 0.583326 0
0.499999 0.458326 0
0.499999 0.416659 0
0.541666 0.458326 0
0.541666 0.416659 0
0.541666 0.458326 0
0.541666 0.416659 0
0.583332 0.458326 0
0.583332 0.416659 0
0.541666 0.499992 0
0.541666 0.458326 0
0.583332 0.499992 0
0.583332 0.458326 0
0.499999 0.499992 0
0.499999 0.458326 0
0.541666 0.499992 0
0.541666 0.458326 0
0.208333 0.20833 0
0.166666 0.208331 0
0.208333 0.166664 0
0.166666 0.166664 0
0.25 0.20833 0
0.208333 0.20833 0
0.25 0.166664 0
0.208333 0.166664 0
0.249999 0.249996 0
0.208333 0.249996 0
0.25 0.20833 0
0.208333 0.20833 0
0.208333 0.249996 0
0.166666 0.249997 0
0.208333 0.20833 0
0.166666 0.208331 0
0.499999 0.374993 0
0.541666 0.374993 0
0.499999 0.416659 0
0.541666 0.416659 0
0.499999 0.333326 0
0.541666 0.333326 0
0.499999 0.374993 0
0.541666 0.374993 0
0.541666 0.333326 0
0.583332 0.333327 0
0.541666 0.374993 0
0.583332 0.374993 0
0.541666 0.374993 0
0.583332 0.374993 0
0.541666 0.416659 0
0.583332 0.416659 0
0.458332 0.499992 0
0.458332 0.458326 0
0.499999 0.499992 0
0.499999 0.458326 0
0.416666 0.499992 0
0.416666 0.458326 0
0.458332 0.499992 0
0.458332 0.458326 0
0.416666 0.458326 0
0.416666 0.416659 0
0.458332 0.458326 0
0.458332 0.416659 0
0.458332 0.458326 0
0.458332 0.416659 0
0.499999 0.458326 0
0.499999 0.416659 0
0.708333 0.166663 0
0.708333 0.124997 0
0.75 0.166664 0
0.75 0.124998 0
0.666666 0.166663 0
0.666666 0.124997 0
0.708333 0.166663 0
0.708333 0.124997 0
0.666666 0.124997 0
0.666666 0.0833314 0
0.708333 0.124997 0
0.708333 0.0833316 0
0.708333 0.124997 0
0.708333 0.0833316 0
0.75 0.124998 0
0.75 0.0833317 0
0.499999 0.29166 0
0.499999 0.249994 0
0.541666 0.29166 0
0.541666 0.249994 0
0.541666 0.29166 0
0.541666 0.249994 0
0.583333 0.29166 0
0.583333 0.249994 0
0.541666 0.333326 0
0.541666 0.29166 0
0.583332 0.333327 0
0.583333 0.29166 0
0.499999 0.333326 0
0.499999 0.29166 0
0.541666 0.333326 0
0.541666 0.29166 0
0.125 0.208331 0
0.125 0.166665 0
0.166666 0.208331 0
0.166666 0.166664 0
0.125 0.249998 0
0.125 0.208331 0
0.166666 0.249997 0
0.166666 0.208331 0
0.0833331 0.249998 0
0.0833331 0.208332 0
0.125 0.249998 0
0.125 0.208331 0
0.0833331 0.208332 0
0.0833332 0.166666 0
0.125 0.208331 0
0.125 0.166665 0
0.249999 0.458327 0
0.208333 0.458328 0
0.249999 0.416661 0
0.208333 0.416662 0
0.249999 0.499994 0
0.208333 0.499995 0
0.249999 0.458327 0
0.208333 0.458328 0
0.208333 0.499995 0
0.166666 0.499996 0
0.208333 0.458328 0
0.166666 0.458329 0
0.208333 0.458328 0
0.166666 0.458329 0
0.208333 0.416662 0
0.166666 0.416662 0
0.708333 0.458327 0
0.708333 0.41666 0
0.749999 0.458328 0
0.749999 0.416661 0
0.708332 0.499994 0
0.708333 0.458327 0
0.749999 0.499994 0
0.749999 0.458328 0
0.666666 0.499993 0
0.666666 0.458327 0
0.708332 0.499994 0
0.708333 0.458327 0
0.666666 0.458327 0
0.666666 0.41666 0
0.708333 0.458327 0
0.708333 0.41666 0
0.416666 0.583326 0
0.458332 0.583326 0
0.416666 0.624993 0
0.458332 0.624993 0
0.458332 0.583326 0
0.499999 0.583326 0
0.458332 0.624993 0
0.499999 0.624993 0
0.458332 0.624993 0
0.499999 0.624993 0
0.458332 0.66666 0
0.499999 0.66666 0
0.416666 0.624993 0
0.458332 0.624993 0
0.416666 0.66666 0
0.458332 0.66666 0
0.458333 0.708327 0
0.499999 0.708327 0
0.458333 0.749994 0
0.499999 0.749994 0
0.416666 0.708327 0
0.458333 0.708327 0
0.416666 0.749994 0
0.458333 0.749994 0
0.416666 0.66666 0
0.458332 0.66666 0
0.416666 0.708327 0
0.458333 0.708327 0
0.458332 0.66666 0
0.499999 0.66666 0
0.458333 0.708327 0
0.499999 0.708327 0
0.458332 0.333326 0
0.499999 0.333326 0
0.458332 0.374993 0
0.499999 0.374993 0
0.458332 0.374993 0
0.499999 0.374993 0
0.458332 0.416659 0
0.499999 0.416659 0
0.416666 0.374993 0
0.458332 0.374993 0
0.416666 0.416659 0
0.458332 0.416659 0
0.416666 0.333327 0
0.458332 0.333326 0
0.416666 0.374993 0
0.458332 0.374993 0
0.125 0.45833 0
0.125 0.416663 0
0.166666 0.458329 0
0.166666 0.416662 0
0.125 0.499997 0
0.125 0.45833 0
0.166666 0.499996 0
0.166666 0.458329 0
0.083333 0.499998 0
0.083333 0.458331 0
0.125 0.499997 0
0.125 0.45833 0
0.083333 0.458331 0
0.083333 0.416664 0
0.125 0.45833 0
0.125 0.416663 0
0.374999 0.374993 0
0.374999 0.416659 0
0.333332 0.374993 0
0.333332 0.41666 0
0.374999 0.333327 0
0.374999 0.374993 0
0.333333 0.333327 0
0.333332 0.374993 0
0.416666 0.333327 0
0.416666 0.374993 0
0.374999 0.333327 0
0.374999 0.374993 0
0.416666 0.374993 0
0.416666 0.416659 0
0.374999 0.374993 0
0.374999 0.416659 0
0.791666 0.333329 0
0.749999 0.333328 0
0.791666 0.291663 0
0.749999 0.291662 0
0.791666 0.291663 0
0.749999 0.291662 0
0.791666 0.249996 0
0.749999 0.249996 0
0.833333 0.291663 0
0.791666 0.291663 0
0.833333 0.249997 0
0.791666 0.249996 0
0.833333 0.33333 0
0.791666 0.333329 0
0.833333 0.291663 0
0.791666 0.291663 0
0.291666 0.624994 0
0.291666 0.666661 0
0.249999 0.624995 0
0.249999 0.666662 0
0.291666 0.583327 0
0.291666 0.624994 0
0.249999 0.583328 0
0.249999 0.624995 0
0.333332 0.583326 0
0.333332 0.624994 0
0.291666 0.583327 0
0.291666 0.624994 0
0.333332 0.624994 0
0.333333 0.666661 0
0.291666 0.624994 0
0.291666 0.666661 0
0.416666 0.333327 0
0.374999 0.333327 0
0.416666 0.29166 0
0.374999 0.291661 0
0.374999 0.333327 0
0.333333 0.333327 0
0.374999 0.291661 0
0.333333 0.291661 0
0.374999 0.291661 0
0.333333 0.291661 0
0.374999 0.249995 0
0.333333 0.249995 0
0.416666 0.29166 0
0.374999 0.291661 0
0.416666 0.249994 0
0.374999 0.249995 0
0.624999 0.66666 0
0.624999 0.708328 0
0.583332 0.66666 0
0.583333 0.708327 0
0.666666 0.666661 0
0.666666 0.708328 0
0.624999 0.66666 0
0.624999 0.708328 0
0.666666 0.708328 0
0.666666 0.749995 0
0.624999 0.708328 0
0.624999 0.749995 0
0.624999 0.708328 0
0.624999 0.749995 0
0.583333 0.708327 0
0.583333 0.749995 0
0.0416666 0.125 0
0.0416666 0.083333 0
0.0833332 0.124999 0
0.0833333 0.0833327 0
0.0416666 0.166666 0
0.0416666 0.125 0
0.0833332 0.166666 0
0.0833332 0.124999 0
0 0.166667 0
0 0.125 0
0.0416666 0.166666 0
0.0416666 0.125 0
0 0.125 0
0 0.0833333 0
0.0416666 0.125 0
0.0416666 0.083333 0
0.541667 0.0416655 0
0.541667 0 0
0.583333 0.0416656 0
0.583333 0 0
0.541666 0.0833311 0
0.541667 0.0416655 0
0.583333 0.0833311 0
0.583333 0.0416656 0
0.5 0.0833311 0
0.5 0.0416655 0
0.541666 0.0833311 0
0.541667 0.0416655 0
0.5 0.0416655 0
0.5 0 0
0.541667 0.0416655 0
0.541667 0 0
0.0416665 0.333332 0
0.0833331 0.333331 0
0.0416665 0.374999 0
0.083333 0.374998 0
0.0416665 0.374999 0
0.083333 0.374998 0
0.0416665 0.416666 0
0.083333 0.416664 0
0 0.375 0
0.0416665 0.374999 0
0 0.416667 0
0.0416665 0.416666 0
0 0.333333 0
0.0416665 0.333332 0
0 0.375 0
0.0416665 0.374999 0
0.666666 0.374994 0
0.708333 0.374994 0
0.666666 0.41666 0
0.708333 0.41666 0
0.666666 0.208329 0
0.666666 0.166663 0
0.708333 0.208329 0
0.708333 0.166663 0
0.708333 0.208329 0
0.708333 0.166663 0
0.75 0.20833 0
0.75 0.166664 0
0.708333 0.249995 0
0.708333 0.208329 0
0.749999 0.249996 0
0.75 0.20833 0
0.666666 0.249995 0
0.666666 0.208329 0
0.708333 0.249995 0
0.708333 0.208329 0
0.333333 0.333327 0
0.333332 0.374993 0
0.291666 0.333328 0
0.291666 0.374994 0
0.333332 0.374993 0
0.333332 0.41666 0
0.291666 0.374994 0
0.291666 0.41666 0
0.291666 0.374994 0
0.291666 0.41666 0
0.249999 0.374994 0
0.249999 0.416661 0
0.291666 0.333328 0
0.291666 0.374994 0
0.249999 0.333328 0
0.249999 0.374994 0
0.666666 0.166663 0
0.624999 0.166663 0
0.666666 0.124997 0
0.625 0.124997 0
0.624999 0.166663 0
0.583333 0.166663 0
0.625 0.124997 0
0.583333 0.124997 0
0.625 0.124997 0
0.583333 0.124997 0
0.625 0.0833312 0
0.583333 0.0833311 0
0.666666 0.124997 0
0.625 0.124997 0
0.666666 0.0833314 0
0.625 0.0833312 0
0 0.0833333 0
0 0.0416667 0
0.0416666 0.083333 0
0.0416666 0.0416665 0
0 0.0416667 0
0 0 0
0.0416666 0.0416665 0
0.0416667 0 0
0.0416666 0.0416665 0
0.0416667 0 0
0.0833333 0.0416664 0
0.0833333 0 0
0.0416666 0.083333 0
0.0416666 0.0416665 0
0.0833333 0.0833327 0
0.0833333 0.0416664 0
0.791666 0.124998 0
0.75 0.124998 0
0.791666 0.083332 0
0.75 0.0833317 0
0.833333 0.124998 0
0.791666 0.124998 0
0.833333 0.0833322 0
0.791666 0.083332 0
0.833333 0.166665 0
0.791666 0.166664 0
0.833333 0.124998 0
0.791666 0.124998 0
0.791666 0.166664 0
0.75 0.166664 0
0.791666 0.124998 0
0.75 0.124998 0
0.875 0.333331 0
0.833333 0.33333 0
0.875 0.291664 0
0.833333 0.291663 0
0.875 0.291664 0
0.833333 0.291663 0
0.875 0.249998 0
0.833333 0.249997 0
0.916666 0.291665 0
0.875 0.291664 0
0.916666 0.249998 0
0.875 0.249998 0
0.916666 0.333331 0
0.875 0.333331 0
0.916666 0.291665 0
0.875 0.291664 0
0.249999 0.291662 0
0.208333 0.291663 0
0.249999 0.249996 0
0.208333 0.249996 0
0.249999 0.333328 0
0.208333 0.333329 0
0.249999 0.291662 0
0.208333 0.291663 0
[...]
POINT_DATA 4416
SCALARS solution_0 double 1
LOOKUP_TABLE default
-0.0196864 -0.0109428 -0.03241 -0.0189652 -0.0288912 -0.0196864 -0.0461805 -0.03241 -0.0144681 -0.00950542 -0.0288912 -0.0196864 -0.00950542 -0.00501262 -0.0196864 -0.0109428 -0.0557739 -0.0589669 -0.0117973 -0.014727 -0.0530588 -0.0557739 -0.0101403 -0.0117973 -0.0962719 -0.100287 -0.0530588 -0.0557739 -0.100287 -0.103991 -0.0557739 -0.0589669 0.0246444 0.0179809 0.0686772 0.0614898 0.0292032 0.0246444 0.0730071 0.0686772 -0.014727 -0.0191008 0.0292032 0.0246444 -0.0191008 -0.025054 0.0246444 0.0179809 -0.0589669 -0.0630587 -0.014727 -0.0191008 -0.103991 -0.108117 -0.0589669 -0.0630587 -0.108117 -0.113374 -0.0630587 -0.0684356 -0.0630587 -0.0684356 -0.0191008 -0.025054 -0.149723 -0.194306 -0.154575 -0.200621 -0.154575 -0.200621 -0.160312 -0.207114 -0.108117 -0.154575 -0.113374 -0.160312 -0.103991 -0.149723 -0.108117 -0.154575 -0.0823364 -0.0587625 -0.0657651 -0.0461805 -0.107417 -0.0823364 -0.086976 -0.0657651 -0.123108 -0.0952722 -0.107417 -0.0823364 -0.0952722 -0.0687553 -0.0823364 -0.0587625 -0.233188 -0.241176 -0.194306 -0.200621 -0.259658 -0.268605 -0.233188 -0.241176 -0.268605 -0.274231 -0.241176 -0.247912 -0.241176 -0.247912 -0.200621 -0.207114 -0.100287 -0.144773 -0.103991 -0.149723 -0.0962719 -0.138711 -0.100287 -0.144773 -0.138711 -0.178063 -0.144773 -0.187156 -0.144773 -0.187156 -0.149723 -0.194306 -0.10904 -0.0708723 -0.0806507 -0.0494514 -0.135293 -0.0920394 -0.10904 -0.0708723 -0.0920394 -0.0559568 -0.0708723 -0.0403862 -0.0708723 -0.0403862 -0.0494514 -0.0255188 -0.267345 -0.25382 -0.275624 -0.259539 -0.275624 -0.259539 -0.278349 -0.258051 -0.268605 -0.275624 -0.274231 -0.278349 -0.259658 -0.267345 -0.268605 -0.275624 -0.0374725 -0.0288912 -0.0587625 -0.0461805 -0.0443971 -0.0374725 -0.0687553 -0.0587625 -0.0230634 -0.0191945 -0.0443971 -0.0374725 -0.0191945 -0.0144681 -0.0374725 -0.0288912 -0.0898345 -0.0716556 -0.111068 -0.0882481 -0.0642471 -0.051252 -0.0898345 -0.0716556 -0.051252 -0.0370653 -0.0716556 -0.0524975 -0.0716556 -0.0524975 -0.0882481 -0.0648724 -0.189079 -0.228623 -0.199083 -0.228838 -0.143873 -0.189079 -0.159539 -0.199083 -0.130515 -0.177641 -0.143873 -0.189079 -0.177641 -0.222156 -0.189079 -0.228623 -0.0101403 -0.0117973 0.0319909 0.0316452 -0.0117973 -0.014727 0.0316452 0.0292032 0.0316452 0.0292032 0.074407 0.0730071 0.0319909 0.0316452 0.0728448 0.074407 0.115869 0.116241 0.154924 0.157838 0.111642 0.115869 0.147281 0.154924 0.0728448 0.074407 0.111642 0.115869 0.074407 0.0730071 0.115869 0.116241 -0.247284 -0.259658 -0.223241 -0.233188 -0.223241 -0.233188 -0.187156 -0.194306 -0.210475 -0.223241 -0.178063 -0.187156 -0.231187 -0.247284 -0.210475 -0.223241 -0.0335014 -0.0420459 -0.0524975 -0.0648724 -0.022875 -0.0335014 -0.0370653 -0.0524975 -0.0105239 -0.0168337 -0.022875 -0.0335014 -0.0168337 -0.0217276 -0.0335014 -0.0420459 -0.194243 -0.166107 -0.174393 -0.150802 -0.211235 -0.194243 -0.187716 -0.174393 -0.231187 -0.210475 -0.211235 -0.194243 -0.210475 -0.178063 -0.194243 -0.166107 -0.1866 -0.230094 -0.153675 -0.199923 -0.153675 -0.199923 -0.11707 -0.160351 -0.102952 -0.153675 -0.0745375 -0.11707 -0.132572 -0.1866 -0.102952 -0.153675 0.0235109 0.0534399 0.0196908 0.0446235 -0.00886078 0.0235109 -0.00776302 0.0196908 -0.00922148 0.0273613 -0.00886078 0.0235109 0.0273613 0.0617292 0.0235109 0.0534399 -0.231187 -0.211235 -0.236278 -0.214331 -0.211235 -0.187716 -0.214331 -0.188981 -0.214331 -0.188981 -0.203176 -0.178281 -0.236278 -0.214331 -0.224728 -0.203176 0.0514639 0.094515 0.0614898 0.105494 0.0384977 0.0798495 0.0514639 0.094515 0.0798495 0.122195 0.094515 0.13798 0.094515 0.13798 0.105494 0.149297 -0.00249814 -0.00119937 -0.00950542 -0.00501262 -0.00396924 -0.00249814 -0.0144681 -0.00950542 0 0 -0.00396924 -0.00249814 0 0 -0.00249814 -0.00119937 -0.0467993 0 -0.0421358 0 -0.0896778 -0.0467993 -0.0820125 -0.0421358 -0.0927413 -0.0485214 -0.0896778 -0.0467993 -0.0485214 0 -0.0467993 0 -0.00750174 -0.0261899 -0.00708173 -0.0248534 -0.00708173 -0.0248534 -0.005651 -0.0217276 0 -0.00708173 0 -0.005651 0 -0.00750174 0 -0.00708173 -0.256575 -0.254304 -0.222156 -0.228623 -0.182989 -0.135293 -0.153274 -0.10904 -0.153274 -0.10904 -0.118545 -0.0806507 -0.198556 -0.153274 -0.160351 -0.118545 -0.228236 -0.182989 -0.198556 -0.153274 -0.187716 -0.174393 -0.161376 -0.151358 -0.174393 -0.150802 -0.151358 -0.132244 -0.151358 -0.132244 -0.12604 -0.111068 -0.161376 -0.151358 -0.133284 -0.12604 -0.135293 -0.156825 -0.0920394 -0.110654 -0.156825 -0.171999 -0.110654 -0.124937 -0.110654 -0.124937 -0.0703767 -0.0820125 -0.0920394 -0.110654 -0.0559568 -0.0703767 0 0 -0.00119937 -0.000709631 0 0 -0.000709631 0 -0.000709631 0 -0.0015582 0 -0.00119937 -0.000709631 -0.00501262 -0.0015582 -0.0302193 -0.0494514 -0.0130938 -0.0255188 -0.0152027 -0.0302193 -0.00435338 -0.0130938 -0.0303996 -0.0533771 -0.0152027 -0.0302193 -0.0533771 -0.0806507 -0.0302193 -0.0494514 -0.0771674 -0.132572 -0.056751 -0.102952 -0.056751 -0.102952 -0.0391579 -0.0745375 -0.0229441 -0.056751 -0.0151426 -0.0391579 -0.0326809 -0.0771674 -0.0229441 -0.056751 -0.132171 -0.10306 -0.123108 -0.0952722 -0.133284 -0.10463 -0.132171 -0.10306 -0.10463 -0.0765444 -0.10306 -0.0749624 -0.10306 -0.0749624 -0.0952722 -0.0687553 -0.000148564 0.00173778 0 0 0 -0.000148564 0 0 0 0.00070868 0 -0.000148564 0.00070868 0.00138621 -0.000148564 0.00173778 -0.11707 -0.160351 -0.082601 -0.118545 -0.082601 -0.118545 -0.0533771 -0.0806507 -0.0500944 -0.082601 -0.0303996 -0.0533771 -0.0745375 -0.11707 -0.0500944 -0.082601 -0.0255267 -0.0230634 -0.0487852 -0.0443971 -0.0487852 -0.0443971 -0.0749624 -0.0687553 -0.0499947 -0.0487852 -0.0765444 -0.0749624 -0.0261899 -0.0255267 -0.0499947 -0.0487852 -0.0995786 -0.0882481 -0.0731165 -0.0648724 -0.10463 -0.0995786 -0.0765444 -0.0731165 -0.133284 -0.12604 -0.10463 -0.0995786 -0.12604 -0.111068 -0.0995786 -0.0882481 0.140691 0.155868 0.116618 0.125613 0.116618 0.125613 0.0910159 0.0934359 0.101118 0.116618 0.0815312 0.0910159 0.119477 0.140691 0.101118 0.116618 -0.0248534 -0.0477816 -0.0217276 -0.0420459 -0.0261899 -0.0499947 -0.0248534 -0.0477816 -0.0499947 -0.0765444 -0.0477816 -0.0731165 -0.0477816 -0.0731165 -0.0420459 -0.0648724 0.0446235 0.0656712 0.0361777 0.0518205 0.0656712 0.0815312 0.0518205 0.0620709 0.0518205 0.0620709 0.0387159 0.0437635 0.0361777 0.0518205 0.028395 0.0387159 -0.177641 -0.167808 -0.222156 -0.214436 -0.130515 -0.120542 -0.177641 -0.167808 -0.120542 -0.113374 -0.167808 -0.160312 -0.167808 -0.160312 -0.214436 -0.207114 -0.00733975 -0.00659068 -0.0255267 -0.0230634 -0.00750174 -0.00733975 -0.0261899 -0.0255267 0 0 -0.00750174 -0.00733975 0 0 -0.00733975 -0.00659068 0.0655731 0.0613986 0.0420707 0.032207 0.0620709 0.0655731 0.0437635 0.0420707 0.0815312 0.0910159 0.0620709 0.0655731 0.0910159 0.0934359 0.0655731 0.0613986 -0.0753933 -0.0642471 -0.106114 -0.0898345 -0.106114 -0.0898345 -0.132244 -0.111068 -0.119806 -0.106114 -0.150802 -0.132244 -0.084361 -0.0753933 -0.119806 -0.106114 -0.00659068 -0.00540405 -0.0230634 -0.0191945 0 0 -0.00659068 -0.00540405 0 0 -0.00540405 -0.00396924 -0.00540405 -0.00396924 -0.0191945 -0.0144681 -0.161376 -0.133284 -0.161209 -0.132171 -0.161209 -0.132171 -0.151184 -0.123108 -0.188981 -0.161209 -0.178281 -0.151184 -0.187716 -0.161376 -0.188981 -0.161209 -0.205311 -0.219232 -0.156825 -0.171999 -0.182989 -0.205311 -0.135293 -0.156825 -0.228236 -0.248092 -0.182989 -0.205311 -0.248092 -0.258051 -0.205311 -0.219232 0.0222077 0.00200006 0.0614671 0.0389074 0.0614671 0.0389074 0.102057 0.0775317 0.0798495 0.0614671 0.122195 0.102057 0.0384977 0.0222077 0.0798495 0.0614671 0.00856719 0.0118688 0.0123328 0.0207559 0.00281053 0.000988243 0.00856719 0.0118688 0.000988243 -0.00230147 0.0118688 0.0142571 0.0118688 0.0142571 0.0207559 0.028395 0.178473 0.20456 0.161712 0.182586 0.161712 0.182586 0.140691 0.155868 0.135233 0.161712 0.119477 0.140691 0.147281 0.178473 0.135233 0.161712 -0.259539 -0.224753 -0.258051 -0.219232 -0.25382 -0.222608 -0.259539 -0.224753 -0.222608 -0.181201 -0.224753 -0.180114 -0.224753 -0.180114 -0.219232 -0.171999 0 0.00270466 0 0.00402134 0 0.00125889 0 0.00270466 0.00270466 0.00856719 0.00402134 0.0123328 0 0 -0.00244398 -0.0041824 0 0 -0.0041824 -0.005651 -0.136208 -0.0980159 -0.116877 -0.0751351 -0.172158 -0.136208 -0.159539 -0.116877 -0.0559568 -0.0262004 -0.0403862 -0.0170128 -0.0262004 0 -0.0170128 0 -0.0170128 0 -0.00868176 0 -0.0403862 -0.0170128 -0.0255188 -0.00868176 -0.00435338 -0.0130938 0.00154877 -0.00228015 -0.0130938 -0.0255188 -0.00228015 -0.00868176 -0.00228015 -0.00868176 0 0 0.00154877 -0.00228015 0 0 -0.085347 -0.0762193 -0.0436439 -0.0381425 -0.0762193 -0.064883 -0.0381425 -0.0315988 -0.0381425 -0.0315988 0 0 -0.0436439 -0.0381425 0 0 0.147281 0.154924 0.178473 0.19017 0.154924 0.157838 0.19017 0.196378 0.19017 0.196378 0.220994 0.231482 0.178473 0.19017 0.20456 0.220994 -0.00218098 -0.0167414 0.0384977 0.0222077 -0.0429982 -0.0565608 -0.00218098 -0.0167414 -0.0565608 -0.0751351 -0.0167414 -0.0355316 -0.0167414 -0.0355316 0.0222077 0.00200006 -0.132932 -0.107417 -0.108804 -0.086976 -0.157606 -0.132932 -0.129961 -0.108804 -0.178281 -0.151184 -0.157606 -0.132932 -0.151184 -0.123108 -0.132932 -0.107417 -0.0980159 -0.0604768 -0.0751351 -0.0355316 -0.0262004 -0.0349735 0 0 -0.0559568 -0.0703767 -0.0262004 -0.0349735 -0.0703767 -0.0820125 -0.0349735 -0.0421358 -0.0349735 -0.0421358 0 0 -0.0911854 -0.084361 -0.130606 -0.119806 -0.130606 -0.119806 -0.166107 -0.150802 -0.138711 -0.130606 -0.178063 -0.166107 -0.0962719 -0.0911854 -0.138711 -0.130606 -0.0756061 -0.0328336 -0.0684356 -0.025054 -0.120542 -0.0756061 -0.113374 -0.0684356 -0.130515 -0.0853895 -0.120542 -0.0756061 -0.0853895 -0.0429982 -0.0756061 -0.0328336 0.00271779 0.00154877 0 0 0.00173778 0.00271779 0 0 0.00138621 0.000280575 0.00173778 0.00271779 0.000280575 -0.00435338 0.00271779 0.00154877 -0.136738 -0.0927413 -0.133781 -0.0896778 -0.133781 -0.0896778 -0.124937 -0.0820125 -0.180114 -0.133781 -0.171999 -0.124937 -0.181201 -0.136738 -0.180114 -0.133781 0 -0.000407312 0 0.00125889 0 -0.00244398 0 -0.000407312 -0.199227 -0.164735 -0.213754 -0.175797 -0.213754 -0.175797 -0.222608 -0.181201 -0.241916 -0.213754 -0.25382 -0.222608 -0.224728 -0.199227 -0.241916 -0.213754 -0.275705 -0.253327 -0.274231 -0.247912 -0.272077 -0.256575 -0.275705 -0.253327 -0.256575 -0.222156 -0.253327 -0.214436 -0.253327 -0.214436 -0.247912 -0.207114 -0.0962719 -0.0530588 -0.0911854 -0.0502976 -0.0530588 -0.0101403 -0.0502976 -0.00944432 -0.0502976 -0.00944432 -0.0469032 -0.00922148 -0.0911854 -0.0502976 -0.084361 -0.0469032 -0.00901181 -0.0249649 -0.0042948 -0.0138674 -0.0151426 -0.0391579 -0.00901181 -0.0249649 -0.0391579 -0.0745375 -0.0249649 -0.0500944 -0.0249649 -0.0500944 -0.0138674 -0.0303996 -0.274279 -0.278349 -0.248092 -0.258051 -0.261659 -0.274279 -0.228236 -0.248092 -0.272077 -0.275705 -0.261659 -0.274279 -0.275705 -0.274231 -0.274279 -0.278349 0.0319909 0.0728448 0.0304188 0.0684667 0.0304188 0.0684667 0.0273613 0.0617292 -0.00944432 0.0304188 -0.00922148 0.0273613 -0.0101403 0.0319909 -0.00944432 0.0304188 -0.0853895 -0.0989615 -0.0429982 -0.0565608 -0.130515 -0.143873 -0.0853895 -0.0989615 -0.143873 -0.159539 -0.0989615 -0.116877 -0.0989615 -0.116877 -0.0565608 -0.0751351 -0.247284 -0.254103 -0.259658 -0.267345 -0.231187 -0.236278 -0.247284 -0.254103 -0.236278 -0.224728 -0.254103 -0.241916 -0.254103 -0.241916 -0.267345 -0.25382 0.0196908 0.0446235 0.0165723 0.0361777 0.0165723 0.0361777 0.0142571 0.028395 -0.00553704 0.0165723 -0.00230147 0.0142571 -0.00776302 0.0196908 -0.00553704 0.0165723 0.111642 0.147281 0.103766 0.135233 0.103766 0.135233 0.0928 0.119477 0.0684667 0.103766 0.0617292 0.0928 0.0728448 0.111642 0.0684667 0.103766 -0.0429982 -0.00218098 -0.0328336 0.00913837 -0.00218098 0.0384977 0.00913837 0.0514639 0.00913837 0.0514639 0.0179809 0.0614898 -0.0328336 0.00913837 -0.025054 0.0179809 -0.261659 -0.228236 -0.23652 -0.198556 -0.23652 -0.198556 -0.199923 -0.160351 0.000278064 -0.000743177 0.00070868 0.00138621 0 0.000278064 0 0.00070868 0 -0.000522513 0 0.000278064 -0.000522513 -0.0042948 0.000278064 -0.000743177 0.0730071 0.0686772 0.116241 0.112759 0.0686772 0.0614898 0.112759 0.105494 0.112759 0.105494 0.155947 0.149297 0.116241 0.112759 0.157838 0.155947 0.0928 0.119477 0.0796987 0.101118 0.0796987 0.101118 0.0656712 0.0815312 0.0534399 0.0796987 0.0446235 0.0656712 0.0617292 0.0928 0.0534399 0.0796987 -0.0286656 -0.00553704 -0.0198782 -0.00230147 -0.051252 -0.0286656 -0.0370653 -0.0198782 -0.0642471 -0.0362817 -0.051252 -0.0286656 -0.0362817 -0.00776302 -0.0286656 -0.00553704 -0.084361 -0.0469032 -0.0753933 -0.0423446 -0.0469032 -0.00922148 -0.0423446 -0.00886078 -0.0423446 -0.00886078 -0.0362817 -0.00776302 -0.0753933 -0.0423446 -0.0642471 -0.0362817 -0.00545681 -0.0152027 0.000280575 -0.00435338 -0.000743177 -0.00545681 0.00138621 0.000280575 -0.0042948 -0.0138674 -0.000743177 -0.00545681 -0.0138674 -0.0303996 -0.00545681 -0.0152027 -0.203176 -0.178281 -0.180122 -0.157606 -0.180122 -0.157606 -0.149053 -0.129961 -0.199227 -0.180122 -0.164735 -0.149053 -0.224728 -0.203176 -0.199227 -0.180122 -0.085347 -0.0436439 -0.0911443 -0.0473292 -0.0436439 0 -0.0473292 0 -0.0473292 0 -0.0485214 0 -0.0911443 -0.0473292 -0.0927413 -0.0485214 0.19696 0.191971 0.23593 0.234474 0.196378 0.19696 0.231482 0.23593 0.157838 0.155947 0.196378 0.19696 0.155947 0.149297 0.19696 0.191971 -0.00486886 -0.0229441 -0.00294481 -0.0151426 0 -0.00486886 0 -0.00294481 0 -0.00672731 0 -0.00486886 -0.00672731 -0.0326809 -0.00486886 -0.0229441 -0.0288491 -0.0189652 -0.0123169 -0.00745557 -0.0123169 -0.00745557 0 0 -0.0181751 -0.0123169 0 0 -0.0402313 -0.0288491 -0.0181751 -0.0123169 -0.064883 -0.0525266 -0.0315988 -0.0247445 -0.0525266 -0.0402313 -0.0247445 -0.0181751 -0.0247445 -0.0181751 0 0 -0.0315988 -0.0247445 0 0 0.181592 0.227392 0.191971 0.234474 0.13798 0.181592 0.149297 0.191971 0.122195 0.166054 0.13798 0.181592 0.166054 0.215057 0.181592 0.227392 -0.129961 -0.108804 -0.0982764 -0.081245 -0.108804 -0.086976 -0.081245 -0.063871 -0.081245 -0.063871 -0.0525266 -0.0402313 -0.0982764 -0.081245 -0.064883 -0.0525266 -0.149053 -0.129961 -0.113617 -0.0982764 -0.113617 -0.0982764 -0.0762193 -0.064883 -0.125902 -0.113617 -0.085347 -0.0762193 -0.164735 -0.149053 -0.125902 -0.113617 -0.00387491 -0.0109672 0.00281053 0.000988243 -0.0105239 -0.022875 -0.00387491 -0.0109672 -0.022875 -0.0370653 -0.0109672 -0.0198782 -0.0109672 -0.0198782 0.000988243 -0.00230147 -0.175797 -0.133922 -0.181201 -0.136738 -0.164735 -0.125902 -0.175797 -0.133922 -0.125902 -0.085347 -0.133922 -0.0911443 -0.133922 -0.0911443 -0.136738 -0.0927413 -0.00501262 -0.0015582 -0.0109428 -0.0038061 -0.0015582 0 -0.0038061 0 -0.0038061 0 -0.00745557 0 -0.0109428 -0.0038061 -0.0189652 -0.00745557 -0.00294481 -0.0151426 -0.00158264 -0.00901181 -0.00158264 -0.00901181 -0.000522513 -0.0042948 0 -0.00158264 0 -0.000522513 0 -0.00294481 0 -0.00158264 0.0143134 0.0262332 0.0134869 0.0273042 0.0123328 0.0207559 0.0143134 0.0262332 0.0207559 0.028395 0.0262332 0.0387159 0.0262332 0.0387159 0.0273042 0.0437635 0.166054 0.145812 0.215057 0.197277 0.122195 0.102057 0.166054 0.145812 0.102057 0.0775317 0.145812 0.120957 0.0134869 0.0273042 0.00868487 0.0224433 0.0273042 0.0437635 0.0224433 0.0420707 0.0224433 0.0420707 0.00947278 0.032207 0.00868487 0.0224433 -0.00279464 0.00947278 0.00402134 0.0123328 0.00424376 0.0143134 0.00424376 0.0143134 0.00359631 0.0134869 0 0.00424376 0 0.00359631 0 0.00402134 0 0.00424376 -0.0473121 -0.03241 -0.0288491 -0.0189652 -0.063871 -0.0473121 -0.0402313 -0.0288491 -0.086976 -0.0657651 -0.063871 -0.0473121 -0.0657651 -0.0461805 -0.0473121 -0.03241 0 0.00359631 0 0.00174052 0.00359631 0.0134869 0.00174052 0.00868487 0.00174052 0.00868487 -0.00327231 -0.00279464 0 0.00174052 0 -0.00327231 0.131051 0.111538 0.127969 0.110401 0.111538 0.0916931 0.110401 0.0924481 0.127969 0.110401 0.125613 0.109525 0.110401 0.0924481 0.109525 0.0934359 0.168121 0.149974 0.161393 0.145146 0.149974 0.131051 0.145146 0.127969 0.161393 0.145146 0.155868 0.140741 0.145146 0.127969 0.140741 0.125613 0.213681 0.191115 0.181195 0.160965 0.191115 0.167677 0.160965 0.13991 0.181195 0.160965 0.168121 0.149974 0.160965 0.13991 0.149974 0.131051 0.167677 0.143528 0.13991 0.118232 0.143528 0.118863 0.118232 0.0961577 0.13991 0.118232 0.131051 0.111538 0.118232 0.0961577 0.111538 0.0916931 0.00842102 0.0324551 0.0329724 0.0581862 0.0324551 0.0617056 0.0581862 0.0886145 0.0329724 0.0581862 0.0548141 0.0804677 0.0581862 0.0886145 0.0804677 0.111322 -0.0294344 -0.0118637 -0.00772563 0.0113796 -0.0118637 0.00842102 0.0113796 0.0329724 -0.00772563 0.0113796 0.0129577 0.0327104 0.0113796 0.0329724 0.0327104 0.0548141 -0.0611511 -0.052016 -0.0492189 -0.0348598 -0.052016 -0.0400775 -0.0348598 -0.0175474 -0.0492189 -0.0348598 -0.0294344 -0.0118637 -0.0348598 -0.0175474 -0.0118637 0.00842102 -0.0400775 -0.0243435 -0.0175474 0.00369954 -0.0243435 -0.00347399 0.00369954 0.0302359 -0.0175474 0.00369954 0.00842102 0.0324551 0.00369954 0.0302359 0.0324551 0.0617056 0.52047 0.537378 0.73859 0.749288 0.537378 0.552971 0.749288 0.759016 0.73859 0.749288 1 1 0.749288 0.759016 1 1 0.292926 0.309589 0.375026 0.393218 0.309589 0.324898 0.393218 0.41005 0.375026 0.393218 0.52047 0.537378 0.393218 0.41005 0.537378 0.552971 0.324898 0.338829 0.41005 0.425501 0.338829 0.351375 0.425501 0.439559 0.41005 0.425501 0.552971 0.567238 0.425501 0.439559 0.567238 0.580177 0.552971 0.567238 0.759016 0.767779 0.567238 0.580177 0.767779 0.775588 0.759016 0.767779 1 1 0.767779 0.775588 1 1 0.118863 0.0939308 0.0961577 0.073987 0.0939308 0.069041 0.073987 0.0520833 0.0961577 0.073987 0.0916931 0.0718292 0.073987 0.0520833 0.0718292 0.052293 0.069041 0.0446009 0.0520833 0.0309157 0.0446009 0.0211432 0.0309157 0.0110886 0.0520833 0.0309157 0.052293 0.0335943 0.0309157 0.0110886 0.0335943 0.0162434 0.052293 0.0335943 0.0570356 0.0402404 0.0335943 0.0162434 0.0402404 0.0248618 0.0570356 0.0402404 0.0613986 0.0468028 0.0402404 0.0248618 0.0468028 0.032207 0.0916931 0.0718292 0.0924481 0.0745629 0.0718292 0.052293 0.0745629 0.0570356 0.0924481 0.0745629 0.0934359 0.0774173 0.0745629 0.0570356 0.0774173 0.0613986 -0.0323896 -0.0223583 -0.0437807 -0.0328671 -0.0223583 -0.0137117 -0.0328671 -0.0208463 -0.0437807 -0.0328671 -0.0434701 -0.035847 -0.0328671 -0.0208463 -0.035847 -0.0229964 0 0 -0.0122215 -0.00766502 0 0 -0.00766502 -0.00452543 -0.0122215 -0.00766502 -0.0323896 -0.0223583 -0.00766502 -0.00452543 -0.0223583 -0.0137117 0 0 -0.00452543 -0.00255721 0 0 -0.00255721 -0.00163616 -0.00452543 -0.00255721 -0.0137117 -0.00737261 -0.00255721 -0.00163616 -0.00737261 -0.00327231 -0.0137117 -0.00737261 -0.0208463 -0.0111229 -0.00737261 -0.00327231 -0.0111229 -0.00303348 -0.0208463 -0.0111229 -0.0229964 -0.0111633 -0.0111229 -0.00303348 -0.0111633 -0.00279464 0.201362 0.185282 0.191112 0.176918 0.185282 0.168121 0.176918 0.161393 0.191112 0.176918 0.182586 0.169227 0.176918 0.161393 0.169227 0.155868 0.229721 0.21618 0.215979 0.204347 0.21618 0.201362 0.204347 0.191112 0.215979 0.204347 0.20456 0.193573 0.204347 0.191112 0.193573 0.182586 0.292926 0.274942 0.251198 0.235548 0.274942 0.255692 0.235548 0.218601 0.251198 0.235548 0.229721 0.21618 0.235548 0.218601 0.21618 0.201362 0.255692 0.235242 0.218601 0.200455 0.235242 0.213681 0.200455 0.181195 0.218601 0.200455 0.201362 0.185282 0.200455 0.181195 0.185282 0.168121 0.0129577 0.0327104 0.0317367 0.0518041 0.0327104 0.0548141 0.0518041 0.0741 0.0317367 0.0518041 0.0486237 0.0689638 0.0518041 0.0741 0.0689638 0.0913051 0.0548141 0.0804677 0.0741 0.0998437 0.0804677 0.111322 0.0998437 0.13068 0.0741 0.0998437 0.0913051 0.116943 0.0998437 0.13068 0.116943 0.14745 0.0913051 0.116943 0.106822 0.132262 0.116943 0.14745 0.132262 0.162208 0.106822 0.132262 0.120957 0.146203 0.132262 0.162208 0.146203 0.175376 0.0486237 0.0689638 0.0638394 0.0845278 0.0689638 0.0913051 0.0845278 0.106822 0.0638394 0.08