# vtk DataFile Version 3.0
#This file was generated by the deal.II library on 2020/12/25 at 19:56:37
ASCII
DATASET UNSTRUCTURED_GRID

POINTS 8832 double
0.125 0.124999 0
0.125 0.0833324 0
0.166666 0.124998 0
0.166667 0.0833322 0
0.125 0.166665 0
0.125 0.124999 0
0.166666 0.166664 0
0.166666 0.124998 0
0.0833332 0.166666 0
0.0833332 0.124999 0
0.125 0.166665 0
0.125 0.124999 0
0.0833332 0.124999 0
0.0833333 0.0833327 0
0.125 0.124999 0
0.125 0.0833324 0
0.458332 0.541659 0
0.499999 0.541659 0
0.458332 0.583326 0
0.499999 0.583326 0
0.416666 0.541659 0
0.458332 0.541659 0
0.416666 0.583326 0
0.458332 0.583326 0
0.416666 0.499992 0
0.458332 0.499992 0
0.416666 0.541659 0
0.458332 0.541659 0
0.458332 0.499992 0
0.499999 0.499992 0
0.458332 0.541659 0
0.499999 0.541659 0
0.541666 0.624993 0
0.583332 0.624993 0
0.541666 0.66666 0
0.583332 0.66666 0
0.499999 0.624993 0
0.541666 0.624993 0
0.499999 0.66666 0
0.541666 0.66666 0
0.499999 0.583326 0
0.541666 0.583326 0
0.499999 0.624993 0
0.541666 0.624993 0
0.541666 0.583326 0
0.583332 0.583326 0
0.541666 0.624993 0
0.583332 0.624993 0
0.499999 0.541659 0
0.541666 0.541659 0
0.499999 0.583326 0
0.541666 0.583326 0
0.499999 0.499992 0
0.541666 0.499992 0
0.499999 0.541659 0
0.541666 0.541659 0
0.541666 0.499992 0
0.583332 0.499992 0
0.541666 0.541659 0
0.583332 0.541659 0
0.541666 0.541659 0
0.583332 0.541659 0
0.541666 0.583326 0
0.583332 0.583326 0
0.499999 0.458326 0
0.499999 0.416659 0
0.541666 0.458326 0
0.541666 0.416659 0
0.541666 0.458326 0
0.541666 0.416659 0
0.583332 0.458326 0
0.583332 0.416659 0
0.541666 0.499992 0
0.541666 0.458326 0
0.583332 0.499992 0
0.583332 0.458326 0
0.499999 0.499992 0
0.499999 0.458326 0
0.541666 0.499992 0
0.541666 0.458326 0
0.208333 0.20833 0
0.166666 0.208331 0
0.208333 0.166664 0
0.166666 0.166664 0
0.25 0.20833 0
0.208333 0.20833 0
0.25 0.166664 0
0.208333 0.166664 0
0.249999 0.249996 0
0.208333 0.249996 0
0.25 0.20833 0
0.208333 0.20833 0
0.208333 0.249996 0
0.166666 0.249997 0
0.208333 0.20833 0
0.166666 0.208331 0
0.291666 0.874997 0
0.25 0.874998 0
0.291666 0.83333 0
0.25 0.83333 0
0.333333 0.874997 0
0.291666 0.874997 0
0.333333 0.83333 0
0.291666 0.83333 0
0.499999 0.374993 0
0.541666 0.374993 0
0.499999 0.416659 0
0.541666 0.416659 0
0.499999 0.333326 0
0.541666 0.333326 0
0.499999 0.374993 0
0.541666 0.374993 0
0.541666 0.333326 0
0.583332 0.333327 0
0.541666 0.374993 0
0.583332 0.374993 0
0.541666 0.374993 0
0.583332 0.374993 0
0.541666 0.416659 0
0.583332 0.416659 0
0.458332 0.499992 0
0.458332 0.458326 0
0.499999 0.499992 0
0.499999 0.458326 0
0.416666 0.499992 0
0.416666 0.458326 0
0.458332 0.499992 0
0.458332 0.458326 0
0.416666 0.458326 0
0.416666 0.416659 0
0.458332 0.458326 0
0.458332 0.416659 0
0.458332 0.458326 0
0.458332 0.416659 0
0.499999 0.458326 0
0.499999 0.416659 0
0.708333 0.166663 0
0.708333 0.124997 0
0.75 0.166664 0
0.75 0.124998 0
0.666666 0.166663 0
0.666666 0.124997 0
0.708333 0.166663 0
0.708333 0.124997 0
0.666666 0.124997 0
0.666666 0.0833314 0
0.708333 0.124997 0
0.708333 0.0833316 0
0.708333 0.124997 0
0.708333 0.0833316 0
0.75 0.124998 0
0.75 0.0833317 0
0.499999 0.29166 0
0.499999 0.249994 0
0.541666 0.29166 0
0.541666 0.249994 0
0.541666 0.29166 0
0.541666 0.249994 0
0.583333 0.29166 0
0.583333 0.249994 0
0.541666 0.333326 0
0.541666 0.29166 0
0.583332 0.333327 0
0.583333 0.29166 0
0.499999 0.333326 0
0.499999 0.29166 0
0.541666 0.333326 0
0.541666 0.29166 0
0.125 0.208331 0
0.125 0.166665 0
0.166666 0.208331 0
0.166666 0.166664 0
0.125 0.249998 0
0.125 0.208331 0
0.166666 0.249997 0
0.166666 0.208331 0
0.0833331 0.249998 0
0.0833331 0.208332 0
0.125 0.249998 0
0.125 0.208331 0
0.0833331 0.208332 0
0.0833332 0.166666 0
0.125 0.208331 0
0.125 0.166665 0
0.249999 0.458327 0
0.208333 0.458328 0
0.249999 0.416661 0
0.208333 0.416662 0
0.249999 0.499994 0
0.208333 0.499995 0
0.249999 0.458327 0
0.208333 0.458328 0
0.208333 0.499995 0
0.166666 0.499996 0
0.208333 0.458328 0
0.166666 0.458329 0
0.208333 0.458328 0
0.166666 0.458329 0
0.208333 0.416662 0
0.166666 0.416662 0
0.708333 0.458327 0
0.708333 0.41666 0
0.749999 0.458328 0
0.749999 0.416661 0
0.708332 0.499994 0
0.708333 0.458327 0
0.749999 0.499994 0
0.749999 0.458328 0
0.666666 0.499993 0
0.666666 0.458327 0
0.708332 0.499994 0
0.708333 0.458327 0
0.666666 0.458327 0
0.666666 0.41666 0
0.708333 0.458327 0
0.708333 0.41666 0
0.416666 0.583326 0
0.458332 0.583326 0
0.416666 0.624993 0
0.458332 0.624993 0
0.458332 0.583326 0
0.499999 0.583326 0
0.458332 0.624993 0
0.499999 0.624993 0
0.458332 0.624993 0
0.499999 0.624993 0
0.458332 0.66666 0
0.499999 0.66666 0
0.416666 0.624993 0
0.458332 0.624993 0
0.416666 0.66666 0
0.458332 0.66666 0
0.458333 0.708327 0
0.499999 0.708327 0
0.458333 0.749994 0
0.499999 0.749994 0
0.416666 0.708327 0
0.458333 0.708327 0
0.416666 0.749994 0
0.458333 0.749994 0
0.416666 0.66666 0
0.458332 0.66666 0
0.416666 0.708327 0
0.458333 0.708327 0
0.458332 0.66666 0
0.499999 0.66666 0
0.458333 0.708327 0
0.499999 0.708327 0
0.208333 0.874998 0
0.166666 0.874998 0
0.208333 0.833331 0
0.166666 0.833331 0
0.25 0.874998 0
0.208333 0.874998 0
0.25 0.83333 0
0.208333 0.833331 0
0 0.875 0
0 0.833333 0
0.0416666 0.875 0
0.0416666 0.833333 0
0.0416666 0.875 0
0.0416666 0.833333 0
0.0833332 0.874999 0
0.0833332 0.833332 0
0.458332 0.333326 0
0.499999 0.333326 0
0.458332 0.374993 0
0.499999 0.374993 0
0.458332 0.374993 0
0.499999 0.374993 0
0.458332 0.416659 0
0.499999 0.416659 0
0.416666 0.374993 0
0.458332 0.374993 0
0.416666 0.416659 0
0.458332 0.416659 0
0.416666 0.333327 0
0.458332 0.333326 0
0.416666 0.374993 0
0.458332 0.374993 0
0.125 0.45833 0
0.125 0.416663 0
0.166666 0.458329 0
0.166666 0.416662 0
0.125 0.499997 0
0.125 0.45833 0
0.166666 0.499996 0
0.166666 0.458329 0
0.083333 0.499998 0
0.083333 0.458331 0
0.125 0.499997 0
0.125 0.45833 0
0.083333 0.458331 0
0.083333 0.416664 0
0.125 0.45833 0
0.125 0.416663 0
0.375 0.874997 0
0.333333 0.874997 0
0.374999 0.83333 0
0.333333 0.83333 0
0.416666 0.874997 0
0.375 0.874997 0
0.416666 0.833329 0
0.374999 0.83333 0
0.374999 0.374993 0
0.374999 0.416659 0
0.333332 0.374993 0
0.333332 0.41666 0
0.374999 0.333327 0
0.374999 0.374993 0
0.333333 0.333327 0
0.333332 0.374993 0
0.416666 0.333327 0
0.416666 0.374993 0
0.374999 0.333327 0
0.374999 0.374993 0
0.416666 0.374993 0
0.416666 0.416659 0
0.374999 0.374993 0
0.374999 0.416659 0
0.791666 0.791664 0
0.791666 0.833331 0
0.75 0.791663 0
0.75 0.83333 0
0.791666 0.749997 0
0.791666 0.791664 0
0.749999 0.749996 0
0.75 0.791663 0
0.291666 0.624994 0
0.291666 0.666661 0
0.249999 0.624995 0
0.249999 0.666662 0
0.291666 0.583327 0
0.291666 0.624994 0
0.249999 0.583328 0
0.249999 0.624995 0
0.333332 0.583326 0
0.333332 0.624994 0
0.291666 0.583327 0
0.291666 0.624994 0
0.333332 0.624994 0
0.333333 0.666661 0
0.291666 0.624994 0
0.291666 0.666661 0
0.416666 0.333327 0
0.374999 0.333327 0
0.416666 0.29166 0
0.374999 0.291661 0
0.374999 0.333327 0
0.333333 0.333327 0
0.374999 0.291661 0
0.333333 0.291661 0
0.374999 0.291661 0
0.333333 0.291661 0
0.374999 0.249995 0
0.333333 0.249995 0
0.416666 0.29166 0
0.374999 0.291661 0
0.416666 0.249994 0
0.374999 0.249995 0
0.624999 0.66666 0
0.624999 0.708328 0
0.583332 0.66666 0
0.583333 0.708327 0
0.666666 0.666661 0
0.666666 0.708328 0
0.624999 0.66666 0
0.624999 0.708328 0
0.666666 0.708328 0
0.666666 0.749995 0
0.624999 0.708328 0
0.624999 0.749995 0
0.624999 0.708328 0
0.624999 0.749995 0
0.583333 0.708327 0
0.583333 0.749995 0
0.0416666 0.125 0
0.0416666 0.083333 0
0.0833332 0.124999 0
0.0833333 0.0833327 0
0.0416666 0.166666 0
0.0416666 0.125 0
0.0833332 0.166666 0
0.0833332 0.124999 0
0 0.166667 0
0 0.125 0
0.0416666 0.166666 0
0.0416666 0.125 0
0 0.125 0
0 0.0833333 0
0.0416666 0.125 0
0.0416666 0.083333 0
0.0833332 0.874999 0
0.0833332 0.833332 0
0.125 0.874999 0
0.125 0.833332 0
0.125 0.874999 0
0.125 0.833332 0
0.166666 0.874998 0
0.166666 0.833331 0
0.541667 0.0416655 0
0.541667 0 0
0.583333 0.0416656 0
0.583333 0 0
0.541666 0.0833311 0
0.541667 0.0416655 0
0.583333 0.0833311 0
0.583333 0.0416656 0
0.5 0.0833311 0
0.5 0.0416655 0
0.541666 0.0833311 0
0.541667 0.0416655 0
0.5 0.0416655 0
0.5 0 0
0.541667 0.0416655 0
0.541667 0 0
0.666666 0.374994 0
0.708333 0.374994 0
0.666666 0.41666 0
0.708333 0.41666 0
0.666666 0.333327 0
0.708333 0.333328 0
0.666666 0.374994 0
0.708333 0.374994 0
0.708333 0.333328 0
0.749999 0.333328 0
0.708333 0.374994 0
0.749999 0.374995 0
0.708333 0.374994 0
0.749999 0.374995 0
0.708333 0.41666 0
0.749999 0.416661 0
0.708333 0.208329 0
0.708333 0.166663 0
0.75 0.20833 0
0.75 0.166664 0
0.333333 0.333327 0
0.333332 0.374993 0
0.291666 0.333328 0
0.291666 0.374994 0
0.333332 0.374993 0
0.333332 0.41666 0
0.291666 0.374994 0
0.291666 0.41666 0
0.291666 0.374994 0
0.291666 0.41666 0
0.249999 0.374994 0
0.249999 0.416661 0
0.291666 0.333328 0
0.291666 0.374994 0
0.249999 0.333328 0
0.249999 0.374994 0
0.666666 0.166663 0
0.624999 0.166663 0
0.666666 0.124997 0
0.625 0.124997 0
0.625 0.124997 0
0.583333 0.124997 0
0.625 0.0833312 0
0.583333 0.0833311 0
0.666666 0.124997 0
0.625 0.124997 0
0.666666 0.0833314 0
0.625 0.0833312 0
0 0.0833333 0
0 0.0416667 0
0.0416666 0.083333 0
0.0416666 0.0416665 0
0 0.0416667 0
0 0 0
0.0416666 0.0416665 0
0.0416667 0 0
0.0416666 0.0416665 0
0.0416667 0 0
0.0833333 0.0416664 0
0.0833333 0 0
0.0416666 0.083333 0
0.0416666 0.0416665 0
0.0833333 0.0833327 0
0.0833333 0.0416664 0
0.791666 0.124998 0
0.75 0.124998 0
0.791666 0.083332 0
0.75 0.0833317 0
0.833333 0.124998 0
0.791666 0.124998 0
0.833333 0.0833322 0
0.791666 0.083332 0
0.833333 0.166665 0
0.791666 0.166664 0
0.833333 0.124998 0
0.791666 0.124998 0
0.791666 0.166664 0
0.75 0.166664 0
0.791666 0.124998 0
0.75 0.124998 0
0.249999 0.291662 0
0.208333 0.291663 0
0.249999 0.249996 0
0.208333 0.249996 0
0.249999 0.333328 0
0.208333 0.333329 0
0.249999 0.291662 0
0.208333 0.291663 0
0.208333 0.333329 0
0.166666 0.33333 0
0.208333 0.291663 0
0.166666 0.291663 0
0.208333 0.291663 0
[...]
POINT_DATA 8832
SCALARS solution_0 double 1
LOOKUP_TABLE default
-0.0293127 -0.00918817 -0.0539519 -0.0229854 -0.0528465 -0.0293127 -0.0876807 -0.0539519 -0.0254533 -0.0119586 -0.0528465 -0.0293127 -0.0119586 -0.0019036 -0.0293127 -0.00918817 -0.0255793 -0.0302194 0.0216291 0.0179086 -0.0215275 -0.0255793 0.0241271 0.0216291 -0.0661129 -0.0713585 -0.0215275 -0.0255793 -0.0713585 -0.0765835 -0.0255793 -0.0302194 0.0616016 0.0544318 0.110199 0.10274 0.0664617 0.0616016 0.114573 0.110199 0.0179086 0.0127552 0.0664617 0.0616016 0.0127552 0.00624396 0.0616016 0.0544318 -0.0302194 -0.0353994 0.0179086 0.0127552 -0.0765835 -0.081549 -0.0302194 -0.0353994 -0.081549 -0.0860965 -0.0353994 -0.0409703 -0.0353994 -0.0409703 0.0127552 0.00624396 -0.120072 -0.160201 -0.124651 -0.164176 -0.124651 -0.164176 -0.128205 -0.166764 -0.081549 -0.124651 -0.0860965 -0.128205 -0.0765835 -0.120072 -0.081549 -0.124651 -0.163124 -0.117241 -0.128358 -0.0876807 -0.20899 -0.163124 -0.171989 -0.128358 -0.225822 -0.183222 -0.20899 -0.163124 -0.183222 -0.137035 -0.163124 -0.117241 0.216498 0.170882 0.215283 0.179957 0.255794 0.216498 0.245028 0.215283 -0.197745 -0.200842 -0.160201 -0.164176 -0.235669 -0.237914 -0.197745 -0.200842 -0.237914 -0.239727 -0.200842 -0.202677 -0.200842 -0.202677 -0.164176 -0.166764 -0.0713585 -0.114659 -0.0765835 -0.120072 -0.0661129 -0.108814 -0.0713585 -0.114659 -0.108814 -0.149495 -0.114659 -0.155114 -0.114659 -0.155114 -0.120072 -0.160201 -0.228095 -0.146129 -0.169917 -0.0979685 -0.276151 -0.191118 -0.228095 -0.146129 -0.191118 -0.108512 -0.146129 -0.0744673 -0.146129 -0.0744673 -0.0979685 -0.0428033 -0.277339 -0.319616 -0.279468 -0.322386 -0.279468 -0.322386 -0.281964 -0.325182 -0.237914 -0.279468 -0.239727 -0.281964 -0.235669 -0.277339 -0.237914 -0.279468 -0.0750533 -0.0528465 -0.117241 -0.0876807 -0.091514 -0.0750533 -0.137035 -0.117241 -0.0502305 -0.0391972 -0.091514 -0.0750533 -0.0391972 -0.0254533 -0.0750533 -0.0528465 -0.0874744 -0.0790294 -0.126641 -0.114347 -0.048181 -0.0427532 -0.0874744 -0.0790294 -0.0427532 -0.0348842 -0.0790294 -0.0659249 -0.0790294 -0.0659249 -0.114347 -0.0951027 -0.132448 -0.1678 -0.133358 -0.170176 -0.0965082 -0.132448 -0.0986636 -0.133358 -0.0937354 -0.132045 -0.0965082 -0.132448 -0.132045 -0.167921 -0.132448 -0.1678 0.0241271 0.0216291 0.0699475 0.0690855 0.0216291 0.0179086 0.0690855 0.0664617 0.0690855 0.0664617 0.116105 0.114573 0.0699475 0.0690855 0.115445 0.116105 0.162796 0.162329 0.209505 0.210308 0.160643 0.162796 0.205438 0.209505 0.115445 0.116105 0.160643 0.162796 0.116105 0.114573 0.162796 0.162329 0.120984 0.0707135 0.140209 0.0979588 0.170882 0.120984 0.179957 0.140209 0 0 -0.00569289 0.00418201 -0.00569289 0.00418201 -0.000611943 0.0232762 -0.232939 -0.235669 -0.193667 -0.197745 -0.193667 -0.197745 -0.155114 -0.160201 -0.189214 -0.193667 -0.149495 -0.155114 -0.229967 -0.232939 -0.189214 -0.193667 -0.047924 -0.069578 -0.0659249 -0.0951027 -0.0240362 -0.047924 -0.0348842 -0.0659249 -0.0108761 -0.0266082 -0.0240362 -0.047924 -0.0266082 -0.0405451 -0.047924 -0.069578 0.287798 0.255794 0.268602 0.245028 0.312239 0.287798 0.286086 0.268602 -0.184878 -0.144027 -0.180481 -0.139043 -0.226593 -0.184878 -0.221785 -0.180481 -0.229967 -0.189214 -0.226593 -0.184878 -0.189214 -0.149495 -0.184878 -0.144027 0.126755 0.163668 0.163653 0.204033 0.0925938 0.126755 0.123891 0.163653 0.0680527 0.106638 0.0658393 0.10069 0.0283411 0.0680527 0.0288834 0.0658393 0.0272095 0.0691161 0.0283411 0.0680527 0.0691161 0.110542 0.0680527 0.106638 -0.229967 -0.226593 -0.272262 -0.26778 -0.226593 -0.221785 -0.26778 -0.259737 -0.26778 -0.259737 -0.301413 -0.286807 -0.272262 -0.26778 -0.310667 -0.301413 0.0923362 0.139899 0.10274 0.151094 0.0792942 0.125072 0.0923362 0.139899 0.125072 0.171759 0.139899 0.188211 0.139899 0.188211 0.151094 0.199985 -0.00235558 0.000584788 -0.0119586 -0.0019036 -0.00668173 -0.00235558 -0.0254533 -0.0119586 0 0 -0.00668173 -0.00235558 0 0 -0.00235558 0.000584788 -0.000611943 0.0232762 0.0270732 0.0568388 0.0270732 0.0568388 0.0707135 0.0979588 -0.0941061 0 -0.0823544 0 -0.180362 -0.0941061 -0.164288 -0.0823544 -0.186943 -0.0985575 -0.180362 -0.0941061 -0.0985575 0 -0.0941061 0 -0.203923 -0.206041 -0.167921 -0.1678 -0.244456 -0.249339 -0.203923 -0.206041 -0.249339 -0.255639 -0.206041 -0.211565 -0.206041 -0.211565 -0.1678 -0.170176 -0.300506 -0.228095 -0.244086 -0.169917 -0.221785 -0.180481 -0.213286 -0.174596 -0.180481 -0.139043 -0.174596 -0.133926 -0.174596 -0.133926 -0.164355 -0.126641 -0.213286 -0.174596 -0.197526 -0.164355 -0.276151 -0.311422 -0.191118 -0.227794 -0.227794 -0.254251 -0.139712 -0.164288 -0.191118 -0.227794 -0.108512 -0.139712 0 0 0.000584788 -0.00131998 0 0 -0.00131998 0 -0.00131998 0 0.00284238 0 0.000584788 -0.00131998 -0.0019036 0.00284238 -0.0545902 -0.0979685 -0.0183579 -0.0428033 -0.0233047 -0.0545902 -0.00350628 -0.0183579 -0.0551847 -0.108431 -0.0233047 -0.0545902 -0.108431 -0.169917 -0.0545902 -0.0979685 -0.22045 -0.185648 -0.225822 -0.183222 -0.197526 -0.171906 -0.22045 -0.185648 -0.171906 -0.137322 -0.185648 -0.143781 -0.185648 -0.143781 -0.183222 -0.137035 0.0594054 0.0925938 0.0847106 0.123891 0.0267665 0.0594054 0.0462649 0.0847106 -0.00191687 0.00155371 0 0 0 -0.00191687 0 0 0 0.000806865 0 -0.00191687 0.000806865 0.00233095 -0.00191687 0.00155371 -0.173419 -0.244086 -0.108431 -0.169917 -0.101629 -0.173419 -0.0551847 -0.108431 -0.156032 -0.23722 -0.101629 -0.173419 -0.219793 -0.177027 -0.211565 -0.170176 -0.0562332 -0.0502305 -0.0992675 -0.091514 -0.0992675 -0.091514 -0.143781 -0.137035 -0.0973495 -0.0992675 -0.137322 -0.143781 -0.0565012 -0.0562332 -0.0973495 -0.0992675 -0.146511 -0.114347 -0.119965 -0.0951027 -0.171906 -0.146511 -0.137322 -0.119965 -0.197526 -0.164355 -0.171906 -0.146511 -0.164355 -0.126641 -0.146511 -0.114347 0.221167 0.245028 0.200328 0.215283 0.200328 0.215283 0.174486 0.179957 0.175127 0.200328 0.157422 0.174486 0.188551 0.221167 0.175127 0.200328 -0.0509577 -0.0868323 -0.0405451 -0.069578 -0.0565012 -0.0973495 -0.0509577 -0.0868323 -0.0973495 -0.137322 -0.0868323 -0.119965 -0.0868323 -0.119965 -0.069578 -0.0951027 0.10069 0.131958 0.0915004 0.116662 0.131958 0.157422 0.116662 0.135239 0.116662 0.135239 0.0976008 0.109635 0.0915004 0.116662 0.0782599 0.0976008 -0.132045 -0.130678 -0.167921 -0.167904 -0.0937354 -0.0901836 -0.132045 -0.130678 -0.0901836 -0.0860965 -0.130678 -0.128205 -0.130678 -0.128205 -0.167904 -0.166764 -0.0181611 -0.0157643 -0.0562332 -0.0502305 -0.0169062 -0.0181611 -0.0565012 -0.0562332 0 0 -0.0169062 -0.0181611 0 0 -0.0181611 -0.0157643 0.1443 0.140209 0.110268 0.0979588 0.135239 0.1443 0.109635 0.110268 0.157422 0.174486 0.135239 0.1443 0.174486 0.179957 0.1443 0.140209 -0.0523959 -0.048181 -0.0930639 -0.0874744 -0.0930639 -0.0874744 -0.133926 -0.126641 -0.0978793 -0.0930639 -0.139043 -0.133926 -0.0565335 -0.0523959 -0.0978793 -0.0930639 -0.0157643 -0.0115354 -0.0502305 -0.0391972 0 0 -0.0157643 -0.0115354 0 0 -0.0115354 -0.00668173 -0.0115354 -0.00668173 -0.0391972 -0.0254533 -0.213286 -0.197526 -0.245262 -0.22045 -0.245262 -0.22045 -0.261167 -0.225822 -0.259737 -0.245262 -0.286807 -0.261167 -0.221785 -0.213286 -0.259737 -0.245262 0.0638731 0.0462649 0.10669 0.0847106 0.10669 0.0847106 0.150377 0.123891 0.125072 0.10669 0.171759 0.150377 0.0792942 0.0638731 0.125072 0.10669 0.023523 0.0264872 0.0448841 0.0542757 0.0448841 0.0542757 0.0627759 0.0782599 0.248424 0.286086 0.237036 0.268602 0.237036 0.268602 0.221167 0.245028 0.198436 0.237036 0.188551 0.221167 0.205438 0.248424 0.198436 0.237036 -0.10245 -0.0986636 -0.13754 -0.133358 -0.13754 -0.133358 -0.177027 -0.170176 -0.111103 -0.0784732 -0.10245 -0.0693427 -0.0784732 -0.0484918 -0.0693427 -0.0371702 -0.0693427 -0.0371702 -0.0638367 -0.0282613 -0.10245 -0.0693427 -0.0986636 -0.0638367 -0.108512 -0.0447459 -0.0744673 -0.0251227 -0.0447459 0 -0.0251227 0 -0.0251227 0 -0.00929377 0 -0.0744673 -0.0251227 -0.0428033 -0.00929377 -0.00350628 -0.0183579 0.00486621 0.000700878 -0.0183579 -0.0428033 0.000700878 -0.00929377 0.000700878 -0.00929377 0 0 0.00486621 0.000700878 0 0 -0.171318 -0.151242 -0.0853337 -0.0709736 -0.151242 -0.125239 -0.0709736 -0.0547151 -0.0709736 -0.0547151 0 0 -0.0853337 -0.0709736 0 0 0.205438 0.209505 0.248424 0.25548 0.209505 0.210308 0.25548 0.258215 0.25548 0.258215 0.297585 0.30327 0.248424 0.25548 0.286086 0.297585 0.0342877 0.0219788 0.0792942 0.0638731 -0.00988601 -0.0189635 0.0342877 0.0219788 -0.0189635 -0.0282613 0.0219788 0.00855832 0.0219788 0.00855832 0.0638731 0.0462649 -0.250985 -0.20899 -0.214635 -0.171989 -0.286773 -0.250985 -0.253475 -0.214635 -0.286807 -0.261167 -0.286773 -0.250985 -0.261167 -0.225822 -0.250985 -0.20899 -0.00543148 0.0267665 0.00855832 0.0462649 -0.0371702 -0.00543148 -0.0282613 0.00855832 -0.0447459 -0.0649689 0 0 -0.108512 -0.139712 -0.0447459 -0.0649689 -0.139712 -0.164288 -0.0649689 -0.0823544 -0.0649689 -0.0823544 0 0 -0.0610996 -0.0565335 -0.103076 -0.0978793 -0.103076 -0.0978793 -0.144027 -0.139043 -0.108814 -0.103076 -0.149495 -0.144027 -0.0661129 -0.0610996 -0.108814 -0.103076 -0.0468046 -0.00138727 -0.0409703 0.00624396 -0.0901836 -0.0468046 -0.0860965 -0.0409703 -0.0937354 -0.0527843 -0.0901836 -0.0468046 -0.0527843 -0.00988601 -0.0468046 -0.00138727 0.00455755 0.00486621 0 0 0.00155371 0.00455755 0 0 0.00233095 0.00243422 0.00155371 0.00455755 0.00243422 -0.00350628 0.00455755 0.00486621 -0.273315 -0.186943 -0.269464 -0.180362 -0.269464 -0.180362 -0.254251 -0.164288 -0.241569 -0.203397 -0.239727 -0.202677 -0.244456 -0.203923 -0.241569 -0.203397 -0.203923 -0.167921 -0.203397 -0.167904 -0.203397 -0.167904 -0.202677 -0.166764 -0.0661129 -0.0215275 -0.0610996 -0.0179716 -0.0215275 0.0241271 -0.0179716 0.0258441 -0.0179716 0.0258441 -0.0147864 0.0272095 -0.0610996 -0.0179716 -0.0565335 -0.0147864 -0.0116852 -0.0432963 -0.00420381 -0.0205848 -0.078075 -0.156032 -0.0432963 -0.101629 -0.0432963 -0.101629 -0.0205848 -0.0551847 -0.28499 -0.281964 -0.327613 -0.325182 -0.244456 -0.241569 -0.288955 -0.28499 -0.241569 -0.239727 -0.28499 -0.281964 0.0699475 0.115445 0.0697597 0.113407 0.0697597 0.113407 0.0691161 0.110542 0.0258441 0.0697597 0.0272095 0.0691161 0.0241271 0.0699475 0.0258441 0.0697597 -0.0527843 -0.0586468 -0.00988601 -0.0189635 -0.0937354 -0.0965082 -0.0527843 -0.0586468 -0.0965082 -0.0986636 -0.0586468 -0.0638367 -0.0586468 -0.0638367 -0.0189635 -0.0282613 -0.232939 -0.275062 -0.235669 -0.277339 -0.229967 -0.272262 -0.232939 -0.275062 -0.272262 -0.310667 -0.275062 -0.316078 -0.275062 -0.316078 -0.277339 -0.319616 0.0658393 0.10069 0.0614162 0.0915004 0.0614162 0.0915004 0.0542757 0.0782599 0.0282742 0.0614162 0.0264872 0.0542757 0.0288834 0.0658393 0.0282742 0.0614162 0.160643 0.205438 0.156554 0.198436 0.156554 0.198436 0.150818 0.188551 0.113407 0.156554 0.110542 0.150818 0.115445 0.160643 0.113407 0.156554 -0.00988601 0.0342877 -0.00138727 0.0452088 0.0342877 0.0792942 0.0452088 0.0923362 0.0452088 0.0923362 0.0544318 0.10274 -0.00138727 0.0452088 0.00624396 0.0544318 -0.244456 -0.288955 -0.249339 -0.293491 0.000878574 0.000462655 0.000806865 0.00233095 0 0.000878574 0 0.000806865 0 8.03339e-05 0 0.000878574 8.03339e-05 -0.00420381 0.000878574 0.000462655 0.114573 0.110199 0.162329 0.158551 0.110199 0.10274 0.158551 0.151094 0.158551 0.151094 0.207267 0.199985 0.162329 0.158551 0.210308 0.207267 0.150818 0.188551 0.14298 0.175127 0.14298 0.175127 0.131958 0.157422 0.106638 0.14298 0.10069 0.131958 0.110542 0.150818 0.106638 0.14298 0.312239 0.286086 0.329166 0.297585 0.329166 0.297585 0.338778 0.30327 -0.00669873 0.0282742 -0.00368706 0.0264872 -0.0427532 -0.00669873 -0.0348842 -0.00368706 -0.048181 -0.00928665 -0.0427532 -0.00669873 -0.00928665 0.0288834 -0.00669873 0.0282742 -0.0565335 -0.0147864 -0.0523959 -0.0119052 -0.0147864 0.0272095 -0.0119052 0.0283411 -0.0119052 0.0283411 -0.00928665 0.0288834 -0.0523959 -0.0119052 -0.048181 -0.00928665 -0.00596146 -0.0233047 0.00243422 -0.00350628 0.000462655 -0.00596146 0.00233095 0.00243422 -0.00420381 -0.0205848 0.000462655 -0.00596146 -0.0205848 -0.0551847 -0.00596146 -0.0233047 -0.171318 -0.0853337 -0.183824 -0.0952555 -0.0853337 0 -0.0952555 0 -0.0952555 0 -0.0985575 0 -0.183824 -0.0952555 -0.186943 -0.0985575 0.25627 0.249332 0.303012 0.296592 0.258215 0.25627 0.30327 0.303012 0.210308 0.207267 0.258215 0.25627 0.207267 0.199985 0.25627 0.249332 -0.0429569 -0.0229854 -0.0109274 -0.00168685 -0.0109274 -0.00168685 0 0 -0.0234797 -0.0109274 0 0 -0.0680341 -0.0429569 -0.0234797 -0.0109274 -0.125239 -0.0963545 -0.0547151 -0.0384502 -0.0963545 -0.0680341 -0.0384502 -0.0234797 -0.0384502 -0.0234797 0 0 -0.0547151 -0.0384502 0 0 0.237022 0.283656 0.249332 0.296592 0.188211 0.237022 0.199985 0.249332 0.171759 0.218835 0.188211 0.237022 0.218835 0.264235 0.237022 0.283656 -0.253475 -0.214635 -0.195945 -0.159781 -0.214635 -0.171989 -0.159781 -0.121705 -0.159781 -0.121705 -0.0963545 -0.0680341 -0.195945 -0.159781 -0.125239 -0.0963545 -0.285528 -0.253475 -0.227248 -0.195945 -0.227248 -0.195945 -0.151242 -0.125239 -0.251769 -0.227248 -0.171318 -0.151242 -0.311082 -0.285528 -0.251769 -0.227248 0.00495793 0.000364264 0.0203999 0.023523 -0.0108761 -0.0240362 0.00495793 0.000364264 -0.0240362 -0.0348842 0.000364264 -0.00368706 0.000364264 -0.00368706 0.023523 0.0264872 -0.251769 -0.171318 -0.26673 -0.183824 -0.26673 -0.183824 -0.273315 -0.186943 -0.0019036 0.00284238 -0.00918817 0.00321972 0.00284238 0 0.00321972 0 0.00321972 0 -0.00168685 0 -0.00918817 0.00321972 -0.0229854 -0.00168685 -0.000837825 -0.0116852 8.03339e-05 -0.00420381 0 -0.000837825 0 8.03339e-05 0.194425 0.163653 0.237631 0.204033 0.218835 0.194425 0.264235 0.237631 0.171759 0.150377 0.218835 0.194425 0.150377 0.123891 0.194425 0.163653 0.0433456 0.078586 0.036523 0.073094 0.078586 0.109635 0.073094 0.110268 0.073094 0.110268 0.0568388 0.0979588 0.036523 0.073094 0.0232762 0.0568388 0.324594 0.336482 0.283656 0.296592 0.0138115 0.0454796 0.012733 0.0433456 0 0.0138115 0 0.012733 -0.0853413 -0.0539519 -0.0429569 -0.0229854 -0.121705 -0.0853413 -0.0680341 -0.0429569 -0.171989 -0.128358 -0.121705 -0.0853413 -0.128358 -0.0876807 -0.0853413 -0.0539519 0.338778 0.30327 0.341203 0.303012 0.341203 0.303012 0.336482 0.296592 0 0.012733 0 0.0089954 0.012733 0.0433456 0.0089954 0.036523 0.0089954 0.036523 0.00418201 0.0232762 0 0.0089954 0 0.00418201 0.251229 0.227779 0.254789 0.233955 0.227779 0.202493 0.233955 0.210763 0.254789 0.233955 0.255794 0.236146 0.233955 0.210763 0.236146 0.216498 0.202493 0.175453 0.210763 0.186441 0.175453 0.147004 0.186441 0.160175 0.210763 0.186441 0.216498 0.19369 0.186441 0.160175 0.19369 0.170882 0.0425556 0.0553859 0.0644791 0.0785789 0.0553859 0.071011 0.0785789 0.095282 0.0644791 0.0785789 0.0859256 0.10135 0.0785789 0.095282 0.10135 0.118826 0.021229 0.0315554 0.0398275 0.0517891 0.0315554 0.0425556 0.0517891 0.0644791 0.0398275 0.0517891 0.0580929 0.071696 0.0517891 0.0644791 0.071696 0.0859256 0.147004 0.117585 0.160175 0.133358 0.117585 0.0876804 0.133358 0.105608 0.160175 0.133358 0.170882 0.145933 0.133358 0.105608 0.145933 0.120984 0.0876804 0.0582398 0.105608 0.0782876 0.0582398 0.0300994 0.0782876 0.0520213 0.105608 0.0782876 0.120984 0.0958488 0.0782876 0.0520213 0.0958488 0.0707135 -0.0279526 -0.0135359 -0.0388081 -0.0191579 -0.0135359 -0.00569289 -0.0191579 -0.00315242 -0.0388081 -0.0191579 -0.0399907 -0.0167021 -0.0191579 -0.00315242 -0.0167021 -0.000611943 0 0 -0.0100447 -0.00459279 0 0 -0.00459279 -0.00284644 -0.0100447 -0.00459279 -0.0279526 -0.0135359 -0.00459279 -0.00284644 -0.0135359 -0.00569289 0.324123 0.309024 0.319174 0.30631 0.309024 0.291906 0.30631 0.291059 0.319174 0.30631 0.312239 0.300018 0.30631 0.291059 0.300018 0.287798 0.291906 0.272568 0.291059 0.274153 0.272568 0.251229 0.274153 0.254789 0.291059 0.274153 0.287798 0.271796 0.274153 0.254789 0.271796 0.255794 -0.257789 -0.258684 -0.267761 -0.275475 -0.258684 -0.255639 -0.275475 -0.276751 -0.267761 -0.275475 -0.268131 -0.28431 -0.275475 -0.276751 -0.28431 -0.292245 -0.268131 -0.28431 -0.257918 -0.282411 -0.28431 -0.292245 -0.282411 -0.298442 -0.257918 -0.282411 -0.23722 -0.269137 -0.282411 -0.298442 -0.269137 -0.292942 -0.206477 -0.242118 -0.183269 -0.224202 -0.242118 -0.268131 -0.224202 -0.257918 -0.183269 -0.224202 -0.156032 -0.196626 -0.224202 -0.257918 -0.196626 -0.23722 -0.23006 -0.24939 -0.222444 -0.250648 -0.24939 -0.257789 -0.250648 -0.267761 -0.222444 -0.250648 -0.206477 -0.242118 -0.250648 -0.267761 -0.242118 -0.268131 0.0580929 0.071696 0.0757687 0.0911509 0.071696 0.0859256 0.0911509 0.106974 0.0757687 0.0911509 0.0925938 0.109674 0.0911509 0.106974 0.109674 0.126755 0.0859256 0.10135 0.106974 0.123548 0.10135 0.118826 0.123548 0.141794 0.106974 0.123548 0.126755 0.145211 0.123548 0.141794 0.145211 0.163668 -0.0946414 -0.0801382 -0.0861152 -0.0707529 -0.0801382 -0.0663886 -0.0707529 -0.0566086 -0.0861152 -0.0707529 -0.0784732 -0.0634825 -0.0707529 -0.0566086 -0.0634825 -0.0484918 -0.125311 -0.109836 -0.119243 -0.10211 -0.109836 -0.0946414 -0.10211 -0.0861152 -0.119243 -0.10211 -0.111103 -0.0947883 -0.10211 -0.0861152 -0.0947883 -0.0784732 -0.0165894 0.00767853 0.00468371 0.0278077 0.00767853 0.0270732 0.0278077 0.0488934 0.00468371 0.0278077 0.0300994 0.0520213 0.0278077 0.0488934 0.0520213 0.0707135 -0.0399907 -0.0167021 -0.0320528 -0.008178 -0.0167021 -0.000611943 -0.008178 0.0132306 -0.0320528 -0.008178 -0.0165894 0.00767853 -0.008178 0.0132306 0.00767853 0.0270732 -0.0169062 -0.0367037 -0.0195751 -0.0353146 -0.0367037 -0.0565012 -0.0353146 -0.0537294 -0.0195751 -0.0353146 -0.0179333 -0.0336603 -0.0353146 -0.0537294 -0.0336603 -0.0509577 -0.0179333 -0.0336603 -0.0158644 -0.0303803 -0.0336603 -0.0509577 -0.0303803 -0.0457514 -0.0158644 -0.0303803 -0.013301 -0.0262736 -0.0303803 -0.0457514 -0.0262736 -0.0405451 0 -0.00532934 0 -0.00447807 -0.00532934 -0.0179333 -0.00447807 -0.0158644 0 -0.00447807 0 -0.00356069 -0.00447807 -0.0158644 -0.00356069 -0.013301 0 -0.0084531 0 -0.00529777 -0.0084531 -0.0169062 -0.00529777 -0.0195751 0 -0.00529777 0 -0.00532934 -0.00529777 -0.0195751 -0.00532934 -0.0179333 -0.319964 -0.316382 -0.309545 -0.299129 -0.316382 -0.300506 -0.299129 -0.272296 -0.309545 -0.299129 -0.292942 -0.274331 -0.299129 -0.272296 -0.274331 -0.244086 -0.327865 -0.335624 -0.325541 -0.328138 -0.335624 -0.331212 -0.328138 -0.318452 -0.325541 -0.328138 -0.319964 -0.316382 -0.328138 -0.318452 -0.316382 -0.300506 -0.0413977 -0.0300793 -0.0302002 -0.0177476 -0.0300793 -0.0191067 -0.0177476 -0.0058422 -0.0302002 -0.0177476 -0.0207701 -0.00739282 -0.0177476 -0.0058422 -0.00739282 0.00580287 -0.0663886 -0.0535217 -0.0566086 -0.0430853 -0.0535217 -0.0413977 -0.0430853 -0.0302002 -0.0566086 -0.0430853 -0.0484918 -0.0346977 -0.0430853 -0.0302002 -0.0346977 -0.0207701 -0.157039 -0.198582 -0.139397 -0.184063 -0.198582 -0.23006 -0.184063 -0.222444 -0.139397 -0.184063 -0.119047 -0.163806 -0.184063 -0.222444 -0.163806 -0.206477 -0.0685272 -0.111211 -0.0560831 -0.0946772 -0.111211 -0.157039 -0.0946772 -0.139397 -0.0560831 -0.0946772 -0.0443922 -0.0777655 -0.0946772 -0.139397 -0.0777655 -0.119047 0.210844 0.23028 0.184873 0.205646 0.23028 0.248157 0.205646 0.224643 0.184873 0.205646 0.163668 0.183851 0.205646 0.224643 0.183851 0.204033 0.168028 0.190068 0.140179 0.16302 0.190068 0.210844 0.16302 0.184873 0.140179 0.16302 0.118826 0.141794 0.16302 0.184873 0.141794 0.163668 0.00580287 0.0188477 0.0165684 0.0313633 0.0188477 0.0318484 0.0313633 0.0459517 0.0165684 0.0313633 0.0267665 0.0430859 0.0313633 0.0459517 0.0430859 0.0594054 0.0318484 0.0448712 0.0459517 0.0608737 0.0448712 0.0580929 0.0608737 0.0757687 0.0459517 0.0608737 0.0594054 0.0759996 0.0608737 0.0757687 0.0759996 0.0925938 -0.0330938 -0.0264896 -0.0159863 -0.00741655 -0.0264896 -0.0198354 -0.00741655 0.00118129 -0.0159863 -0.00741655 0.00138325 0.0112479 -0.00741655 0.00118129 0.0112479 0.021229 0.00138325 0.0112479 0.0171233 0.0284502 0.0112479 0.021229 0.0284502 0.0398275 0.0171233 0.0284502 0.0318484