# vtk DataFile Version 3.0
#This file was generated by the deal.II library on 2020/11/19 at 14:48:45
ASCII
DATASET UNSTRUCTURED_GRID

POINTS 18684 double
0.125 0.124999 0
0.125 0.0833324 0
0.166666 0.124998 0
0.166667 0.0833322 0
0.125 0.166665 0
0.125 0.124999 0
0.166666 0.166664 0
0.166666 0.124998 0
0.0833332 0.166666 0
0.0833332 0.124999 0
0.125 0.166665 0
0.125 0.124999 0
0.0833332 0.124999 0
0.0833333 0.0833327 0
0.125 0.124999 0
0.125 0.0833324 0
0.208333 0.20833 0
0.166666 0.208331 0
0.208333 0.166664 0
0.166666 0.166664 0
0.25 0.20833 0
0.208333 0.20833 0
0.25 0.166664 0
0.208333 0.166664 0
0.249999 0.249996 0
0.208333 0.249996 0
0.25 0.20833 0
0.208333 0.20833 0
0.208333 0.249996 0
0.166666 0.249997 0
0.208333 0.20833 0
0.166666 0.208331 0
0.499999 0.374993 0
0.541666 0.374993 0
0.499999 0.416659 0
0.541666 0.416659 0
0.499999 0.333326 0
0.541666 0.333326 0
0.499999 0.374993 0
0.541666 0.374993 0
0.541666 0.333326 0
0.583332 0.333327 0
0.541666 0.374993 0
0.583332 0.374993 0
0.541666 0.374993 0
0.583332 0.374993 0
0.541666 0.416659 0
0.583332 0.416659 0
0.416666 0.499992 0
0.416666 0.458326 0
0.458332 0.499992 0
0.458332 0.458326 0
0.416666 0.458326 0
0.416666 0.416659 0
0.458332 0.458326 0
0.458332 0.416659 0
0.458332 0.458326 0
0.458332 0.416659 0
0.499999 0.458326 0
0.499999 0.416659 0
0.708333 0.166663 0
0.708333 0.124997 0
0.75 0.166664 0
0.75 0.124998 0
0.666666 0.166663 0
0.666666 0.124997 0
0.708333 0.166663 0
0.708333 0.124997 0
0.666666 0.124997 0
0.666666 0.0833314 0
0.708333 0.124997 0
0.708333 0.0833316 0
0.708333 0.124997 0
0.708333 0.0833316 0
0.75 0.124998 0
0.75 0.0833317 0
0.499999 0.29166 0
0.499999 0.249994 0
0.541666 0.29166 0
0.541666 0.249994 0
0.541666 0.29166 0
0.541666 0.249994 0
0.583333 0.29166 0
0.583333 0.249994 0
0.541666 0.333326 0
0.541666 0.29166 0
0.583332 0.333327 0
0.583333 0.29166 0
0.499999 0.333326 0
0.499999 0.29166 0
0.541666 0.333326 0
0.541666 0.29166 0
0.125 0.208331 0
0.125 0.166665 0
0.166666 0.208331 0
0.166666 0.166664 0
0.125 0.249998 0
0.125 0.208331 0
0.166666 0.249997 0
0.166666 0.208331 0
0.0833331 0.249998 0
0.0833331 0.208332 0
0.125 0.249998 0
0.125 0.208331 0
0.0833331 0.208332 0
0.0833332 0.166666 0
0.125 0.208331 0
0.125 0.166665 0
0.249999 0.458327 0
0.208333 0.458328 0
0.249999 0.416661 0
0.208333 0.416662 0
0.249999 0.499994 0
0.208333 0.499995 0
0.249999 0.458327 0
0.208333 0.458328 0
0.208333 0.499995 0
0.166666 0.499996 0
0.208333 0.458328 0
0.166666 0.458329 0
0.208333 0.458328 0
0.166666 0.458329 0
0.208333 0.416662 0
0.166666 0.416662 0
0.458332 0.333326 0
0.499999 0.333326 0
0.458332 0.374993 0
0.499999 0.374993 0
0.458332 0.374993 0
0.499999 0.374993 0
0.458332 0.416659 0
0.499999 0.416659 0
0.416666 0.374993 0
0.458332 0.374993 0
0.416666 0.416659 0
0.458332 0.416659 0
0.416666 0.333327 0
0.458332 0.333326 0
0.416666 0.374993 0
0.458332 0.374993 0
0.125 0.45833 0
0.125 0.416663 0
0.166666 0.458329 0
0.166666 0.416662 0
0.374999 0.374993 0
0.374999 0.416659 0
0.333332 0.374993 0
0.333332 0.41666 0
0.374999 0.333327 0
0.374999 0.374993 0
0.333333 0.333327 0
0.333332 0.374993 0
0.416666 0.333327 0
0.416666 0.374993 0
0.374999 0.333327 0
0.374999 0.374993 0
0.416666 0.374993 0
0.416666 0.416659 0
0.374999 0.374993 0
0.374999 0.416659 0
0.791666 0.333329 0
0.749999 0.333328 0
0.791666 0.291663 0
0.749999 0.291662 0
0.791666 0.291663 0
0.749999 0.291662 0
0.791666 0.249996 0
0.749999 0.249996 0
0.833333 0.291663 0
0.791666 0.291663 0
0.833333 0.249997 0
0.791666 0.249996 0
0.833333 0.33333 0
0.791666 0.333329 0
0.833333 0.291663 0
0.791666 0.291663 0
0.291666 0.624994 0
0.291666 0.666661 0
0.249999 0.624995 0
0.249999 0.666662 0
0.291666 0.583327 0
0.291666 0.624994 0
0.249999 0.583328 0
0.249999 0.624995 0
0.333332 0.583326 0
0.333332 0.624994 0
0.291666 0.583327 0
0.291666 0.624994 0
0.333332 0.624994 0
0.333333 0.666661 0
0.291666 0.624994 0
0.291666 0.666661 0
0.416666 0.333327 0
0.374999 0.333327 0
0.416666 0.29166 0
0.374999 0.291661 0
0.374999 0.333327 0
0.333333 0.333327 0
0.374999 0.291661 0
0.333333 0.291661 0
0.374999 0.291661 0
0.333333 0.291661 0
0.374999 0.249995 0
0.333333 0.249995 0
0.416666 0.29166 0
0.374999 0.291661 0
0.416666 0.249994 0
0.374999 0.249995 0
0.0416666 0.125 0
0.0416666 0.083333 0
0.0833332 0.124999 0
0.0833333 0.0833327 0
0.0416666 0.166666 0
0.0416666 0.125 0
0.0833332 0.166666 0
0.0833332 0.124999 0
0 0.166667 0
0 0.125 0
0.0416666 0.166666 0
0.0416666 0.125 0
0 0.125 0
0 0.0833333 0
0.0416666 0.125 0
0.0416666 0.083333 0
0.541667 0.0416655 0
0.541667 0 0
0.583333 0.0416656 0
0.583333 0 0
0.541666 0.0833311 0
0.541667 0.0416655 0
0.583333 0.0833311 0
0.583333 0.0416656 0
0.5 0.0833311 0
0.5 0.0416655 0
0.541666 0.0833311 0
0.541667 0.0416655 0
0.5 0.0416655 0
0.5 0 0
0.541667 0.0416655 0
0.541667 0 0
0.666666 0.333327 0
0.708333 0.333328 0
0.666666 0.374994 0
0.708333 0.374994 0
0.666666 0.208329 0
0.666666 0.166663 0
0.708333 0.208329 0
0.708333 0.166663 0
0.708333 0.208329 0
0.708333 0.166663 0
0.75 0.20833 0
0.75 0.166664 0
0.708333 0.249995 0
0.708333 0.208329 0
0.749999 0.249996 0
0.75 0.20833 0
0.666666 0.249995 0
0.666666 0.208329 0
0.708333 0.249995 0
0.708333 0.208329 0
0.333333 0.333327 0
0.333332 0.374993 0
0.291666 0.333328 0
0.291666 0.374994 0
0.333332 0.374993 0
0.333332 0.41666 0
0.291666 0.374994 0
0.291666 0.41666 0
0.291666 0.374994 0
0.291666 0.41666 0
0.249999 0.374994 0
0.249999 0.416661 0
0.291666 0.333328 0
0.291666 0.374994 0
0.249999 0.333328 0
0.249999 0.374994 0
0.666666 0.166663 0
0.624999 0.166663 0
0.666666 0.124997 0
0.625 0.124997 0
0.624999 0.166663 0
0.583333 0.166663 0
0.625 0.124997 0
0.583333 0.124997 0
0.625 0.124997 0
0.583333 0.124997 0
0.625 0.0833312 0
0.583333 0.0833311 0
0.666666 0.124997 0
0.625 0.124997 0
0.666666 0.0833314 0
0.625 0.0833312 0
0 0.0833333 0
0 0.0416667 0
0.0416666 0.083333 0
0.0416666 0.0416665 0
0 0.0416667 0
0 0 0
0.0416666 0.0416665 0
0.0416667 0 0
0.0416666 0.0416665 0
0.0416667 0 0
0.0833333 0.0416664 0
0.0833333 0 0
0.0416666 0.083333 0
0.0416666 0.0416665 0
0.0833333 0.0833327 0
0.0833333 0.0416664 0
0.791666 0.124998 0
0.75 0.124998 0
0.791666 0.083332 0
0.75 0.0833317 0
0.833333 0.124998 0
0.791666 0.124998 0
0.833333 0.0833322 0
0.791666 0.083332 0
0.833333 0.166665 0
0.791666 0.166664 0
0.833333 0.124998 0
0.791666 0.124998 0
0.791666 0.166664 0
0.75 0.166664 0
0.791666 0.124998 0
0.75 0.124998 0
0.875 0.333331 0
0.833333 0.33333 0
0.875 0.291664 0
0.833333 0.291663 0
0.875 0.291664 0
0.833333 0.291663 0
0.875 0.249998 0
0.833333 0.249997 0
0.916666 0.291665 0
0.875 0.291664 0
0.916666 0.249998 0
0.875 0.249998 0
0.916666 0.333331 0
0.875 0.333331 0
0.916666 0.291665 0
0.875 0.291664 0
0.249999 0.291662 0
0.208333 0.291663 0
0.249999 0.249996 0
0.208333 0.249996 0
0.249999 0.333328 0
0.208333 0.333329 0
0.249999 0.291662 0
0.208333 0.291663 0
0.208333 0.333329 0
0.166666 0.33333 0
0.208333 0.291663 0
0.166666 0.291663 0
0.208333 0.291663 0
0.166666 0.291663 0
0.208333 0.249996 0
0.166666 0.249997 0
0.958333 0.0416665 0
0.916667 0.0416664 0
0.958333 0 0
0.916667 0 0
1 0.0416667 0
0.958333 0.0416665 0
1 0 0
0.958333 0 0
1 0.0833333 0
0.958333 0.083333 0
1 0.0416667 0
0.958333 0.0416665 0
0.958333 0.083333 0
0.916667 0.0833328 0
0.958333 0.0416665 0
0.916667 0.0416664 0
0.791666 0.249996 0
0.749999 0.249996 0
0.791666 0.20833 0
0.75 0.20833 0
0.791666 0.20833 0
0.75 0.20833 0
0.791666 0.166664 0
0.75 0.166664 0
0.833333 0.208331 0
0.791666 0.20833 0
0.833333 0.166665 0
0.791666 0.166664 0
0.833333 0.249997 0
0.791666 0.249996 0
0.833333 0.208331 0
0.791666 0.20833 0
0.0833331 0.291665 0
0.0833331 0.249998 0
0.125 0.291664 0
0.125 0.249998 0
0.125 0.291664 0
0.125 0.249998 0
0.166666 0.291663 0
0.166666 0.249997 0
0.125 0.33333 0
0.125 0.291664 0
0.166666 0.33333 0
0.166666 0.291663 0
0.0833331 0.333331 0
0.0833331 0.291665 0
0.125 0.33333 0
0.125 0.291664 0
0.208333 0.374995 0
0.208333 0.416662 0
0.166666 0.374996 0
0.166666 0.416662 0
0.208333 0.333329 0
0.208333 0.374995 0
0.166666 0.33333 0
0.166666 0.374996 0
0.249999 0.333328 0
0.249999 0.374994 0
0.208333 0.333329 0
0.208333 0.374995 0
0.249999 0.374994 0
0.249999 0.416661 0
0.208333 0.374995 0
0.208333 0.416662 0
0.0833331 0.333331 0
0.125 0.33333 0
0.083333 0.374998 0
0.125 0.374997 0
0.125 0.33333 0
0.166666 0.33333 0
0.125 0.374997 0
0.166666 0.374996 0
0.125 0.374997 0
0.166666 0.374996 0
0.125 0.416663 0
0.166666 0.416662 0
0.0416665 0.291666 0
0.0416666 0.249999 0
0.0833331 0.291665 0
0.0833331 0.249998 0
0.0416665 0.333332 0
0.0416665 0.291666 0
0.0833331 0.333331 0
0.0833331 0.291665 0
0 0.333333 0
0 0.291667 0
0.0416665 0.333332 0
0.0416665 0.291666 0
0 0.291667 0
0 0.25 0
0.0416665 0.291666 0
0.0416666 0.249999 0
0.291666 0.499994 0
0.249999 0.499994 0
0.291666 0.458327 0
0.249999 0.458327 0
0.291666 0.458327 0
0.249999 0.458327 0
0.291666 0.41666 0
0.249999 0.416661 0
0.333332 0.458326 0
0.291666 0.458327 0
0.333332 0.41666 0
0.291666 0.41666 0
0.333332 0.499993 0
0.291666 0.499994 0
0.333332 0.458326 0
0.291666 0.458327 0
0.0416666 0.249999 0
0.0416666 0.208333 0
0.0833331 0.249998 0
0.0833331 0.208332 0
0 0.25 0
0 0.208333 0
0.0416666 0.249999 0
0.0416666 0.208333 0
0 0.208333 0
0 0.166667 0
0.0416666 0.208333 0
0.0416666 0.166666 0
0.0416666 0.208333 0
0.0416666 0.166666 0
0.0833331 0.208332 0
0.0833332 0.166666 0
0.291666 0.333328 0
0.249999 0.333328 0
0.291666 0.291661 0
0.249999 0.291662 0
0.291666 0.291661 0
0.249999 0.291662 0
0.291666 0.249995 0
0.249999 0.249996 0
0.333333 0.291661 0
0.291666 0.291661 0
0.333333 0.249995 0
0.291666 0.249995 0
0.333333 0.333327 0
0.291666 0.333328 0
0.333333 0.291661 0
0.291666 0.291661 0
0.624999 0.208329 0
0.583333 0.208328 0
0.624999 0.166663 0
0.583333 0.166663 0
0.666666 0.208329 0
0.624999 0.208329 0
0.666666 0.166663 0
0.624999 0.166663 0
0.666666 0.249995 0
0.624999 0.249995 0
0.666666 0.208329 0
0.624999 0.208329 0
0.624999 0.249995 0
0.583333 0.249994 0
0.624999 0.208329 0
0.583333 0.208328 0
[...]
POINT_DATA 18684
SCALARS solution_0 double 1
LOOKUP_TABLE default
-0.0119084 -0.00727584 -0.0199211 -0.012842 -0.0163943 -0.0119084 -0.026752 -0.0199211 -0.00788698 -0.00554489 -0.0163943 -0.0119084 -0.00554489 -0.00306173 -0.0119084 -0.00727584 -0.0467753 -0.0330783 -0.0381946 -0.026752 -0.0608337 -0.0467753 -0.0500212 -0.0381946 -0.0705882 -0.0544691 -0.0608337 -0.0467753 -0.0544691 -0.0387179 -0.0467753 -0.0330783 -0.191737 -0.198652 -0.202847 -0.212563 -0.175964 -0.180164 -0.191737 -0.198652 -0.180164 -0.179216 -0.198652 -0.200342 -0.198652 -0.200342 -0.212563 -0.217421 -0.167419 -0.173464 -0.185324 -0.191227 -0.173464 -0.172763 -0.191227 -0.189108 -0.191227 -0.189108 -0.206638 -0.202847 -0.0597261 -0.0441763 -0.0465792 -0.033766 -0.0718812 -0.0540096 -0.0597261 -0.0441763 -0.0540096 -0.0367096 -0.0441763 -0.0294545 -0.0441763 -0.0294545 -0.033766 -0.0218939 -0.15726 -0.137091 -0.159223 -0.1374 -0.159223 -0.1374 -0.156362 -0.133351 -0.180164 -0.159223 -0.179216 -0.156362 -0.175964 -0.15726 -0.180164 -0.159223 -0.0205217 -0.0163943 -0.0330783 -0.026752 -0.0241738 -0.0205217 -0.0387179 -0.0330783 -0.0118854 -0.0100168 -0.0241738 -0.0205217 -0.0100168 -0.00788698 -0.0205217 -0.0163943 -0.092258 -0.0711884 -0.0927008 -0.0715572 -0.0890272 -0.0688418 -0.092258 -0.0711884 -0.0688418 -0.0493592 -0.0711884 -0.0508951 -0.0711884 -0.0508951 -0.0715572 -0.0510521 -0.167406 -0.175964 -0.180658 -0.191737 -0.180658 -0.191737 -0.189108 -0.202847 -0.166262 -0.180658 -0.172763 -0.189108 -0.155307 -0.167406 -0.166262 -0.180658 -0.0319153 -0.032286 -0.0508951 -0.0510521 -0.149416 -0.154372 -0.130778 -0.134586 -0.140417 -0.149416 -0.123441 -0.130778 -0.155307 -0.166262 -0.140417 -0.149416 -0.166262 -0.172763 -0.149416 -0.154372 -0.0898672 -0.116901 -0.0723927 -0.095736 -0.0723927 -0.095736 -0.0574174 -0.0770835 -0.049323 -0.0723927 -0.0385538 -0.0574174 -0.0621646 -0.0898672 -0.049323 -0.0723927 -0.0761967 -0.0604238 -0.0651587 -0.0549408 -0.0900697 -0.0761967 -0.074888 -0.0651587 -0.104678 -0.086232 -0.0900697 -0.0761967 -0.086232 -0.064665 -0.0761967 -0.0604238 -0.155307 -0.140417 -0.14117 -0.128376 -0.140417 -0.123441 -0.128376 -0.113318 -0.128376 -0.113318 -0.114165 -0.101092 -0.14117 -0.128376 -0.124933 -0.114165 -0.00139256 -0.000669865 -0.00554489 -0.00306173 -0.00205696 -0.00139256 -0.00788698 -0.00554489 0 0 -0.00205696 -0.00139256 0 0 -0.00139256 -0.000669865 -0.0272629 0 -0.0255119 0 -0.0509408 -0.0272629 -0.0478804 -0.0255119 -0.0520433 -0.0278788 -0.0509408 -0.0272629 -0.0278788 0 -0.0272629 0 -0.159529 -0.140744 -0.184477 -0.165684 -0.0910798 -0.0718812 -0.0767579 -0.0597261 -0.0767579 -0.0597261 -0.060839 -0.0465792 -0.0958208 -0.0767579 -0.0770835 -0.060839 -0.112116 -0.0910798 -0.0958208 -0.0767579 -0.123441 -0.130778 -0.105017 -0.110938 -0.130778 -0.134586 -0.110938 -0.113879 -0.110938 -0.113879 -0.0904362 -0.0927008 -0.105017 -0.110938 -0.0857477 -0.0904362 -0.0718812 -0.082102 -0.0540096 -0.0624576 -0.082102 -0.0896818 -0.0624576 -0.0688833 -0.0624576 -0.0688833 -0.0430222 -0.0478804 -0.0540096 -0.0624576 -0.0367096 -0.0430222 0 0 -0.000669865 0.000223039 0 0 0.000223039 0 0.000223039 0 -0.000807426 0 -0.000669865 0.000223039 -0.00306173 -0.000807426 -0.0236729 -0.033766 -0.0147177 -0.0218939 -0.0147633 -0.0236729 -0.00857548 -0.0147177 -0.0216744 -0.0335286 -0.0147633 -0.0236729 -0.0335286 -0.0465792 -0.0236729 -0.033766 -0.0368412 -0.0621646 -0.0288264 -0.049323 -0.0288264 -0.049323 -0.0222183 -0.0385538 -0.0129319 -0.0288264 -0.00984028 -0.0222183 -0.0167998 -0.0368412 -0.0129319 -0.0288264 -0.0790062 -0.0610489 -0.0705882 -0.0544691 -0.0857477 -0.0662557 -0.0790062 -0.0610489 -0.0662557 -0.0472636 -0.0610489 -0.0434998 -0.0610489 -0.0434998 -0.0544691 -0.0387179 0.00039772 0.000207479 0 0 0 0.00039772 0 0 0 -0.000101436 0 0.00039772 -0.000101436 -0.0011713 0.00039772 0.000207479 -0.0574174 -0.0770835 -0.0446177 -0.060839 -0.0446177 -0.060839 -0.0335286 -0.0465792 -0.02948 -0.0446177 -0.0216744 -0.0335286 -0.0385538 -0.0574174 -0.02948 -0.0446177 -0.0134459 -0.0118854 -0.0272528 -0.0241738 -0.0272528 -0.0241738 -0.0434998 -0.0387179 -0.0296451 -0.0272528 -0.0472636 -0.0434998 -0.0147111 -0.0134459 -0.0296451 -0.0272528 -0.0698318 -0.0715572 -0.0498014 -0.0510521 -0.0662557 -0.0698318 -0.0472636 -0.0498014 -0.0857477 -0.0904362 -0.0662557 -0.0698318 -0.0904362 -0.0927008 -0.0698318 -0.0715572 -0.0147111 -0.0296451 -0.0156753 -0.0313565 -0.0296451 -0.0472636 -0.0313565 -0.0498014 -0.0313565 -0.0498014 -0.032286 -0.0510521 -0.00359508 -0.00316938 -0.0134459 -0.0118854 -0.00374925 -0.00359508 -0.0147111 -0.0134459 0 0 -0.00374925 -0.00359508 0 0 -0.00359508 -0.00316938 -0.109191 -0.0890272 -0.113387 -0.092258 -0.113387 -0.092258 -0.113879 -0.0927008 -0.134183 -0.113387 -0.134586 -0.113879 -0.129096 -0.109191 -0.134183 -0.113387 -0.00316938 -0.00265075 -0.0118854 -0.0100168 0 0 -0.00316938 -0.00265075 0 0 -0.00265075 -0.00205696 -0.00265075 -0.00205696 -0.0100168 -0.00788698 -0.105017 -0.0857477 -0.0966484 -0.0790062 -0.0966484 -0.0790062 -0.0863508 -0.0705882 -0.113318 -0.0966484 -0.101092 -0.0863508 -0.123441 -0.105017 -0.113318 -0.0966484 -0.102753 -0.111058 -0.082102 -0.0896818 -0.0910798 -0.102753 -0.0718812 -0.082102 -0.112116 -0.124847 -0.0910798 -0.102753 -0.124847 -0.133351 -0.102753 -0.111058 -0.1374 -0.115619 -0.133351 -0.111058 -0.137091 -0.116369 -0.1374 -0.115619 -0.116369 -0.0954623 -0.115619 -0.094189 -0.115619 -0.094189 -0.111058 -0.0896818 -0.0367096 -0.0190812 -0.0294545 -0.0149223 -0.0190812 0 -0.0149223 0 -0.0149223 0 -0.0106319 0 -0.0294545 -0.0149223 -0.0218939 -0.0106319 -0.00857548 -0.0147177 -0.00332353 -0.00663412 -0.0147177 -0.0218939 -0.00663412 -0.0106319 -0.00663412 -0.0106319 0 0 -0.00332353 -0.00663412 0 0 -0.0485623 -0.0443891 -0.0258574 -0.0234821 -0.0443891 -0.0390019 -0.0234821 -0.0204429 -0.0234821 -0.0204429 0 0 -0.0258574 -0.0234821 0 0 -0.0745583 -0.0608337 -0.0615873 -0.0500212 -0.0872987 -0.0745583 -0.0722869 -0.0615873 -0.101092 -0.0863508 -0.0872987 -0.0745583 -0.0863508 -0.0705882 -0.0745583 -0.0608337 -0.0190812 -0.0227158 0 0 -0.0367096 -0.0430222 -0.0190812 -0.0227158 -0.0430222 -0.0478804 -0.0227158 -0.0255119 -0.0227158 -0.0255119 0 0 -0.148556 -0.129096 -0.154329 -0.134183 -0.154329 -0.134183 -0.154372 -0.134586 -0.173464 -0.154329 -0.172763 -0.154372 -0.167419 -0.148556 -0.173464 -0.154329 -0.000998977 -0.00332353 0 0 0.000207479 -0.000998977 0 0 -0.0011713 -0.00397388 0.000207479 -0.000998977 -0.00397388 -0.00857548 -0.000998977 -0.00332353 -0.0742238 -0.0520433 -0.0728682 -0.0509408 -0.0728682 -0.0509408 -0.0688833 -0.0478804 -0.094189 -0.0728682 -0.0896818 -0.0688833 -0.0954623 -0.0742238 -0.094189 -0.0728682 -0.107348 -0.0888032 -0.11349 -0.0935782 -0.11349 -0.0935782 -0.116369 -0.0954623 -0.132769 -0.11349 -0.137091 -0.116369 -0.124933 -0.107348 -0.132769 -0.11349 -0.172491 -0.19579 -0.179216 -0.200342 -0.159529 -0.184477 -0.172491 -0.19579 -0.184477 -0.207287 -0.19579 -0.216106 -0.19579 -0.216106 -0.200342 -0.217421 -0.167419 -0.15407 -0.148556 -0.136665 -0.15407 -0.133212 -0.136665 -0.118874 -0.136665 -0.118874 -0.119174 -0.104678 -0.148556 -0.136665 -0.129096 -0.119174 -0.00727853 -0.0167083 -0.00505532 -0.0119695 -0.00984028 -0.0222183 -0.00727853 -0.0167083 -0.0222183 -0.0385538 -0.0167083 -0.02948 -0.0167083 -0.02948 -0.0119695 -0.0216744 -0.148314 -0.156362 -0.124847 -0.133351 -0.135113 -0.148314 -0.112116 -0.124847 -0.159529 -0.172491 -0.135113 -0.148314 -0.172491 -0.179216 -0.148314 -0.156362 -0.105512 -0.0719512 -0.0957544 -0.0681856 -0.0957544 -0.0681856 -0.086232 -0.064665 -0.118874 -0.0957544 -0.104678 -0.086232 -0.133212 -0.105512 -0.118874 -0.0957544 -0.167406 -0.151025 -0.175964 -0.15726 -0.155307 -0.14117 -0.167406 -0.151025 -0.14117 -0.124933 -0.151025 -0.132769 -0.151025 -0.132769 -0.15726 -0.137091 -0.0651587 -0.0549408 -0.0529439 -0.0471101 -0.074888 -0.0651587 -0.0591845 -0.0529439 -0.0681856 -0.0367718 -0.064665 -0.0405747 -0.0719512 -0.0334119 -0.0681856 -0.0367718 -0.135113 -0.112116 -0.117208 -0.0958208 -0.117208 -0.0958208 -0.095736 -0.0770835 -0.140744 -0.117208 -0.116901 -0.095736 -0.159529 -0.135113 -0.140744 -0.117208 -0.000606182 -0.00302966 -0.000101436 -0.0011713 0 -0.000606182 0 -0.000101436 0 -0.00113174 0 -0.000606182 -0.00113174 -0.00505532 -0.000606182 -0.00302966 -0.0604238 -0.0435434 -0.0549408 -0.0444534 -0.064665 -0.0405747 -0.0604238 -0.0435434 -0.0688418 -0.0647569 -0.0493592 -0.0464399 -0.0890272 -0.0830615 -0.0688418 -0.0647569 -0.0830615 -0.074888 -0.0647569 -0.0591845 -0.129096 -0.119174 -0.109191 -0.101302 -0.119174 -0.104678 -0.101302 -0.0900697 -0.101302 -0.0900697 -0.0830615 -0.074888 -0.109191 -0.101302 -0.0890272 -0.0830615 -0.00774298 -0.0147633 -0.00397388 -0.00857548 -0.00302966 -0.00774298 -0.0011713 -0.00397388 -0.00505532 -0.0119695 -0.00302966 -0.00774298 -0.0119695 -0.0216744 -0.00774298 -0.0147633 -0.114165 -0.101092 -0.0984295 -0.0872987 -0.0984295 -0.0872987 -0.0815413 -0.0722869 -0.107348 -0.0984295 -0.0888032 -0.0815413 -0.124933 -0.114165 -0.107348 -0.0984295 -0.0485623 -0.0258574 -0.0511993 -0.0273763 -0.0258574 0 -0.0273763 0 -0.0273763 0 -0.0278788 0 -0.0511993 -0.0273763 -0.0520433 -0.0278788 -0.00307092 -0.0129319 -0.00231536 -0.00984028 0 -0.00307092 0 -0.00231536 0 -0.00411735 0 -0.00307092 -0.00411735 -0.0167998 -0.00307092 -0.0129319 -0.00411735 -0.00508925 -0.0167998 -0.0213909 0 0 -0.00411735 -0.00508925 -0.0192584 -0.012842 -0.00945602 -0.00594199 -0.00945602 -0.00594199 0 0 -0.0132087 -0.00945602 0 0 -0.0260438 -0.0192584 -0.0132087 -0.00945602 -0.0390019 -0.0327598 -0.0204429 -0.0169468 -0.0327598 -0.0260438 -0.0169468 -0.0132087 -0.0169468 -0.0132087 0 0 -0.0204429 -0.0169468 0 0 -0.0722869 -0.0615873 -0.0562041 -0.0476296 -0.0615873 -0.0500212 -0.0476296 -0.0383665 -0.0476296 -0.0383665 -0.0327598 -0.0260438 -0.0562041 -0.0476296 -0.0390019 -0.0327598 -0.0815413 -0.0722869 -0.0635903 -0.0562041 -0.0635903 -0.0562041 -0.0443891 -0.0390019 -0.0693195 -0.0635903 -0.0485623 -0.0443891 -0.0888032 -0.0815413 -0.0693195 -0.0635903 -0.0935782 -0.0729742 -0.0954623 -0.0742238 -0.0888032 -0.0693195 -0.0935782 -0.0729742 -0.0693195 -0.0485623 -0.0729742 -0.0511993 -0.0729742 -0.0511993 -0.0742238 -0.0520433 -0.00306173 -0.000807426 -0.00727584 -0.00295546 -0.000807426 0 -0.00295546 0 -0.00295546 0 -0.00594199 0 -0.00727584 -0.00295546 -0.012842 -0.00594199 -0.00231536 -0.00984028 -0.00168733 -0.00727853 -0.00168733 -0.00727853 -0.00113174 -0.00505532 0 -0.00168733 0 -0.00113174 0 -0.00231536 0 -0.00168733 -0.0289426 -0.0199211 -0.0192584 -0.012842 -0.0383665 -0.0289426 -0.0260438 -0.0192584 -0.0500212 -0.0381946 -0.0383665 -0.0289426 -0.0381946 -0.026752 -0.0289426 -0.0199211 0.703331 0.714392 0.849744 0.855704 0.714392 0.723944 0.855704 0.860766 0.849744 0.855704 1 1 0.855704 0.860766 1 1 -0.105589 -0.0777269 -0.0923661 -0.0586881 -0.0777269 -0.0432498 -0.0586881 -0.0186846 -0.0923661 -0.0586881 -0.0763655 -0.0382332 -0.0586881 -0.0186846 -0.0382332 0.00582558 0.00582558 0.0565077 0.0289714 0.082154 0.0565077 0.114498 0.082154 0.142024 0.0289714 0.082154 0.0496048 0.104094 0.082154 0.142024 0.104094 0.164885 -0.0763655 -0.0382332 -0.0593338 -0.0180062 -0.0382332 0.00582558 -0.0180062 0.0289714 -0.0593338 -0.0180062 -0.0425917 0.000864105 -0.0180062 0.0289714 0.000864105 0.0496048 -0.0862591 -0.0937872 -0.109786 -0.118408 -0.0937872 -0.101276 -0.118408 -0.126715 -0.109786 -0.118408 -0.132973 -0.142206 -0.118408 -0.126715 -0.142206 -0.150761 -0.0426996 -0.0471085 -0.063504 -0.0695704 -0.0471085 -0.0516853 -0.0695704 -0.0757591 -0.063504 -0.0695704 -0.0862591 -0.0937872 -0.0695704 -0.0757591 -0.0937872 -0.101276 -0.135782 -0.108798 -0.12599 -0.0952845 -0.108798 -0.0763655 -0.0952845 -0.0593338 -0.12599 -0.0952845 -0.114561 -0.0810261 -0.0952845 -0.0593338 -0.0810261 -0.0425917 -0.174533 -0.157649 -0.172345 -0.151619 -0.157649 -0.135782 -0.151619 -0.12599 -0.172345 -0.151619 -0.167181 -0.143265 -0.151619 -0.12599 -0.143265 -0.114561 -0.144772 -0.127712 -0.142562 -0.120154 -0.127712 -0.105589 -0.120154 -0.0923661 -0.142562 -0.120154 -0.135782 -0.108798 -0.120154 -0.0923661 -0.108798 -0.0763655 0.0198062 0.0415825 0.00854608 0.0273598 0.0415825 0.0695743 0.0273598 0.0522031 0.00854608 0.0273598 -0.00243005 0.0133049 0.0273598 0.0522031 0.0133049 0.0348073 -0.00243005 0.0133049 -0.0128881 -0.000338705 0.0133049 0.0348073 -0.000338705 0.0176277 -0.0128881 -0.000338705 -0.0225629 -0.0132819 -0.000338705 0.0176277 -0.0132819 0.000960139 -0.0383069 -0.0356186 -0.0436461 -0.0441136 -0.0356186 -0.0292589 -0.0441136 -0.0417633 -0.0436461 -0.0441136 -0.0467613 -0.0501119 -0.0441136 -0.0417633 -0.0501119 -0.0516305 -0.0225629 -0.0132819 -0.0311508 -0.0251796 -0.0132819 0.000960139 -0.0251796 -0.0148245 -0.0311508 -0.0251796 -0.0383069 -0.0356186 -0.0251796 -0.0148245 -0.0356186 -0.0292589 -0.0906521 -0.102527 -0.0539006 -0.0670174 -0.102527 -0.114561 -0.0670174 -0.0810261 -0.0539006 -0.0670174 -0.0129568 -0.026966 -0.0670174 -0.0810261 -0.026966 -0.0425917 0 0 -0.00280614 -0.00313698 0 0 -0.00313698 -0.00356057 -0.00280614 -0.00313698 -0.0114093 -0.0127409 -0.00313698 -0.00356057 -0.0127409 -0.0142001 0 0 -0.00356057 -0.00396587 0 0 -0.00396587 -0.00421328 -0.00356057 -0.00396587 -0.0142001 -0.0157381 -0.00396587 -0.00421328 -0.0157381 -0.0173143 -0.0114093 -0.0127409 -0.0249907 -0.0277601 -0.0127409 -0.0142001 -0.0277601 -0.0306556 -0.0249907 -0.0277601 -0.0426996 -0.0471085 -0.0277601 -0.0306556 -0.0471085 -0.0516853 0.0639197 0.0963473 0.0533669 0.0833046 0.0963473 0.135216 0.0833046 0.119686 0.0533669 0.0833046 0.0423911 0.0697271 0.0833046 0.119686 0.0697271 0.103476 0.0423911 0.0697271 0.0311484 0.0557653 0.0697271 0.103476 0.0557653 0.0867218 0.0311484 0.0557653 0.0198062 0.0415825 0.0557653 0.0867218 0.0415825 0.0695743 -0.132973 -0.154856 -0.123368 -0.14481 -0.154856 -0.174691 -0.14481 -0.164665 -0.123368 -0.14481 -0.113658 -0.13437 -0.14481 -0.164665 -0.13437 -0.153909 -0.132973 -0.142206 -0.154856 -0.164179 -0.142206 -0.150761 -0.164179 -0.172366 -0.154856 -0.164179 -0.174691 -0.183584 -0.164179 -0.172366 -0.183584 -0.190953 -0.190953 -0.196211 -0.205913 -0.209361 -0.196211 -0.198893 -0.209361 -0.209792 -0.205913 -0.209361 -0.217431 -0.218826 -0.209361 -0.209792 -0.218826 -0.216814 -0.174691 -0.183584 -0.191944 -0.19998 -0.183584 -0.190953 -0.19998 -0.205913 -0.191944 -0.19998 -0.206301 -0.213096 -0.19998 -0.205913 -0.213096 -0.217431 0.0831784 0.0916037 0.120268 0.130872 0.0916037 0.0990348 0.130872 0.140383 0.120268 0.130872 0.163715 0.176429 0.130872 0.140383 0.176429 0.187939 0.0639197 0.0739036 0.0963473 0.108714 0.0739036 0.0831784 0.108714 0.120268 0.0963473 0.108714 0.135216 0.149935 0.108714 0.120268 0.149935 0.163715 -0.194604 -0.186738 -0.199622 -0.188273 -0.186738 -0.174533 -0.188273 -0.172345 -0.199622 -0.188273 -0.200886 -0.186356 -0.188273 -0.172345 -0.186356 -0.167181 -0.198893 -0.198513 -0.209792 -0.206676 -0.198513 -0.194604 -0.206676 -0.199622 -0.209792 -0.206676 -0.216814 -0.210952 -0.206676 -0.199622 -0.210952 -0.200886 -0.0862591 -0.109786 -0.0788422 -0.101081 -0.109786 -0.132973 -0.101081 -0.123368 -0.0788422 -0.101081 -0.0716601 -0.0924824 -0.101081 -0.123368 -0.0924824 -0.113658 0.110301 0.113813 0.155516 0.160808 0.113813 0.115682 0.160808 0.164343 0.155516 0.160808 0.206759 0.213747 0.160808 0.164343 0.213747 0.218877 0.0990348 0.10532 0.140383 0.14865 0.10532 0.110301 0.14865 0.155516 0.140383 0.14865 0.187939 0.198101 0.14865 0.155516 0.198101 0.206759 0.113821 0.165387 0.115746 0.165904 0.165387 0.222503 0.165904 0.221945 0.115746 0.165904 0.115682 0.164343 0.165904 0.221945 0.164343 0.218877 0.00934146 0.0541872 0.017544 0.061627 0.0541872 0.103187 0.061627 0.109707 0.017544 0.061627 0.0238549 0.066907 0.061627 0.109707 0.066907 0.113821 0.103187 0.156961 0.109707 0.162468 0.156961 0.216385 0.162468 0.220889 0.109707 0.162468 0.113821 0.165387 0.162468 0.220889 0.165387 0.222503 0.747681 0.868912 0.750969 0.871882 0.868912 1 0.871882 1 0.750969 0.871882 0.752052 0.87327 0.871882 1 0.87327 1 0.752052 0.87327 0.751299 0.873558 0.87327 1 0.873558 1 0.751299 0.873558 0.748839 0.87282 0.873558 1 0.87282 1 -0.0157803 -0.0218969 -0.0179196 -0.0243485 -0.0218969 -0.0276959 -0.0243485 -0.0300814 -0.0179196 -0.0243485 -0.0210046 -0.0278766 -0.0243485 -0.0300814 -0.0278766 -0.033634 0.0821904 0.0673804 0.137191 0.122382 0.0673804 0.0496048 0.122382 0.104094 0.137191 0.122382 0.19789 0.183486 0.122382 0.104094 0.183486 0.164885 0.103187 0.0940833 0.156961 0.14863 0.0940833 0.0821904 0.14863 0.137191 0.156961 0.14863 0.216385 0.208836 0.14863 0.137191 0.208836 0.19789 0.00934146 -0.000822414 0.0541872 0.0444479 -0.000822414 -0.0129568 0.0444479 0.0323086 0.0541872 0.0444479 0.103187 0.0940833 0.0444479 0.0323086 0.0940833 0.0821904 -0.0129568 -0.026966 0.0323086 0.0177439 -0.026966 -0.0425917 0.0177439 0.000864105 0.0323086 0.0177439 0.0821904 0.0673804 0.0177439 0.000864105 0.0673804 0.0496048 0.356711 0.282571 0.350534 0.275767 0.282571 0.216385 0.275767 0.208836 0.350534 0.275767 0.340464 0.265132 0.275767 0.208836 0.265132 0.19789 -0.0210046 -0.0278766 -0.0254574 -0.0328841 -0.0278766 -0.033634 -0.0328841 -0.0385436 -0.0254574 -0.0328841 -0.0313225 -0.0394642 -0.0328841 -0.0385436 -0.0394642 -0.0448454 -0.0448454 -0.0472612 -0.0523146 -0.0530258 -0.0472612 -0.0467613 -0.0530258 -0.0501119 -0.0523146 -0.0530258 -0.0601083 -0.0580379 -0.0530258 -0.0501119 -0.0580379 -0.0516305 -0.0313225 -0.0394642 -0.0389802 -0.0476103 -0.0394642 -0.0448454 -0.0476103 -0.0523146 -0.0389802 -0.0476103 -0.0485932 -0.0571238 -0.0476103 -0.0523146 -0.0571238 -0.0601083 0.356711 0.359655 0.282571 0.286192 0.359655 0.359398 0.286192 0.286541 0.282571 0.286192 0.216385 0.220889 0.286192 0.286541 0.220889 0.222503 -0.00390467 -0.00826459 -0.00422763 -0.00885582 -0.00826459 -0.0136183 -0.00885582 -0.0144079 -0.00422763 -0.00885582 -0.00475834 -0.0098514 -0.00885582 -0.0144079 -0.0098514 -0.0157803 -0.00475834 -0.0098514 -0.00557641 -0.0113967 -0.0098514 -0.0157803 -0.0113967 -0.0179196 -0.00557641 -0.0113967 -0.00681945 -0.0135882 -0.0113967 -0.0179196 -0.0135882 -0.0210046 0 -0.00122789 0 -0.0014089 -0.00122789 -0.00475834 -0.0014089 -0.00557641 0 -0.0014089 0 -0.00178224 -0.0014089 -0.00557641 -0.00178224 -0.00681945 0 -0.00098961 0 -0.00107971 -0.00098961 -0.00390467 -0.00107971 -0.00422763 0 -0.00107971 0 -0.00122789 -0.00107971 -0.00422763 -0.00122789 -0.00475834 0.739231 0.744784 0.868518 0.871121 0.744784 0.748839 0.871121 0.87282 0.868518 0.871121 1 1 0.871121 0.87282 1 1 0.723944 0.732264 0.860766 0.865056 0.732264 0.739231 0.865056 0.868518 0.860766 0.865056 1 1 0.865056 0.868518 1 1 -0.226073 -0.219707 -0.217654 -0.210005 -0.219707 -0.211236 -0.210005 -0.200548 -0.217654 -0.210005 -0.206301 -0.197547 -0.210005 -0.200548 -0.197547 -0.187334 -0.133544 -0.103211 -0.12482 -0.0941892 -0.103211 -0.0692479 -0.0941892 -0.0602226 -0.12482 -0.0941892 -0.11662 -0.0860704 -0.0941892 -0.0602226 -0.0860704 -0.052458 -0.0692479 -0.03174 -0.0602226 -0.0229958 -0.03174 0.00934146 -0.0229958 0.017544 -0.0602226 -0.0229958 -0.052458 -0.0158428 -0.0229958 0.017544 -0.0158428 0.0238549 -0.052458 -0.0158428 -0.0459684 -0.010233 -0.0158428 0.0238549 -0.010233 0.0283815 -0.0459684 -0.010233 -0.0407226 -0.00608615 -0.010233 0.0283815 -0.00608615 0.0312495 -0.151531 -0.159958 -0.123218 -0.133516 -0.159958 -0.167181 -0.133516 -0.143265 -0.123218 -0.133516 -0.0906521 -0.102527 -0.133516 -0.143265 -0.102527 -0.114561 -0.0692479 -0.0794517 -0.03174 -0.0420707 -0.0794517 -0.0906521 -0.0420707 -0.0539006 -0.03174 -0.0420707 0.00934146 -0.000822414 -0.0420707 -0.0539006 -0.000822414 -0.0129568 -0.133544 -0.142563 -0.103211 -0.112977 -0.142563 -0.151531 -0.112977 -0.123218 -0.103211 -0.112977 -0.0692479 -0.0794517 -0.112977 -0.123218 -0.0794517 -0.0906521 -0.013226 -0.0193426 -0.0132642 -0.0192409 -0.0193426 -0.0259469 -0.0192409 -0.0255723 -0.0132642 -0.0192409 -0.0136183 -0.0195306 -0.0192409 -0.0255723 -0.0195