# vtk DataFile Version 3.0
#This file was generated by the deal.II library on 2020/11/19 at 14:52:00
ASCII
DATASET UNSTRUCTURED_GRID

POINTS 39564 double
0.125 0.124999 0
0.125 0.0833324 0
0.166666 0.124998 0
0.166667 0.0833322 0
0.125 0.166665 0
0.125 0.124999 0
0.166666 0.166664 0
0.166666 0.124998 0
0.0833332 0.166666 0
0.0833332 0.124999 0
0.125 0.166665 0
0.125 0.124999 0
0.0833332 0.124999 0
0.0833333 0.0833327 0
0.125 0.124999 0
0.125 0.0833324 0
0.458332 0.541659 0
0.499999 0.541659 0
0.458332 0.583326 0
0.499999 0.583326 0
0.416666 0.541659 0
0.458332 0.541659 0
0.416666 0.583326 0
0.458332 0.583326 0
0.416666 0.499992 0
0.458332 0.499992 0
0.416666 0.541659 0
0.458332 0.541659 0
0.458332 0.499992 0
0.499999 0.499992 0
0.458332 0.541659 0
0.499999 0.541659 0
0.541666 0.624993 0
0.583332 0.624993 0
0.541666 0.66666 0
0.583332 0.66666 0
0.499999 0.624993 0
0.541666 0.624993 0
0.499999 0.66666 0
0.541666 0.66666 0
0.499999 0.583326 0
0.541666 0.583326 0
0.499999 0.624993 0
0.541666 0.624993 0
0.541666 0.583326 0
0.583332 0.583326 0
0.541666 0.624993 0
0.583332 0.624993 0
0.499999 0.541659 0
0.541666 0.541659 0
0.499999 0.583326 0
0.541666 0.583326 0
0.499999 0.499992 0
0.541666 0.499992 0
0.499999 0.541659 0
0.541666 0.541659 0
0.541666 0.499992 0
0.583332 0.499992 0
0.541666 0.541659 0
0.583332 0.541659 0
0.541666 0.541659 0
0.583332 0.541659 0
0.541666 0.583326 0
0.583332 0.583326 0
0.499999 0.458326 0
0.499999 0.416659 0
0.541666 0.458326 0
0.541666 0.416659 0
0.541666 0.458326 0
0.541666 0.416659 0
0.583332 0.458326 0
0.583332 0.416659 0
0.541666 0.499992 0
0.541666 0.458326 0
0.583332 0.499992 0
0.583332 0.458326 0
0.499999 0.499992 0
0.499999 0.458326 0
0.541666 0.499992 0
0.541666 0.458326 0
0.208333 0.20833 0
0.166666 0.208331 0
0.208333 0.166664 0
0.166666 0.166664 0
0.25 0.20833 0
0.208333 0.20833 0
0.25 0.166664 0
0.208333 0.166664 0
0.208333 0.249996 0
0.166666 0.249997 0
0.208333 0.20833 0
0.166666 0.208331 0
0.499999 0.374993 0
0.541666 0.374993 0
0.499999 0.416659 0
0.541666 0.416659 0
0.541666 0.374993 0
0.583332 0.374993 0
0.541666 0.416659 0
0.583332 0.416659 0
0.458332 0.499992 0
0.458332 0.458326 0
0.499999 0.499992 0
0.499999 0.458326 0
0.416666 0.499992 0
0.416666 0.458326 0
0.458332 0.499992 0
0.458332 0.458326 0
0.416666 0.458326 0
0.416666 0.416659 0
0.458332 0.458326 0
0.458332 0.416659 0
0.458332 0.458326 0
0.458332 0.416659 0
0.499999 0.458326 0
0.499999 0.416659 0
0.125 0.208331 0
0.125 0.166665 0
0.166666 0.208331 0
0.166666 0.166664 0
0.125 0.249998 0
0.125 0.208331 0
0.166666 0.249997 0
0.166666 0.208331 0
0.0833331 0.249998 0
0.0833331 0.208332 0
0.125 0.249998 0
0.125 0.208331 0
0.0833331 0.208332 0
0.0833332 0.166666 0
0.125 0.208331 0
0.125 0.166665 0
0.416666 0.583326 0
0.458332 0.583326 0
0.416666 0.624993 0
0.458332 0.624993 0
0.458332 0.583326 0
0.499999 0.583326 0
0.458332 0.624993 0
0.499999 0.624993 0
0.458332 0.624993 0
0.499999 0.624993 0
0.458332 0.66666 0
0.499999 0.66666 0
0.416666 0.624993 0
0.458332 0.624993 0
0.416666 0.66666 0
0.458332 0.66666 0
0.458333 0.708327 0
0.499999 0.708327 0
0.458333 0.749994 0
0.499999 0.749994 0
0.416666 0.708327 0
0.458333 0.708327 0
0.416666 0.749994 0
0.458333 0.749994 0
0.416666 0.66666 0
0.458332 0.66666 0
0.416666 0.708327 0
0.458333 0.708327 0
0.458332 0.66666 0
0.499999 0.66666 0
0.458333 0.708327 0
0.499999 0.708327 0
0.458332 0.374993 0
0.499999 0.374993 0
0.458332 0.416659 0
0.499999 0.416659 0
0.624999 0.66666 0
0.624999 0.708328 0
0.583332 0.66666 0
0.583333 0.708327 0
0.666666 0.666661 0
0.666666 0.708328 0
0.624999 0.66666 0
0.624999 0.708328 0
0.666666 0.708328 0
0.666666 0.749995 0
0.624999 0.708328 0
0.624999 0.749995 0
0.624999 0.708328 0
0.624999 0.749995 0
0.583333 0.708327 0
0.583333 0.749995 0
0.0416666 0.125 0
0.0416666 0.083333 0
0.0833332 0.124999 0
0.0833333 0.0833327 0
0.0416666 0.166666 0
0.0416666 0.125 0
0.0833332 0.166666 0
0.0833332 0.124999 0
0 0.166667 0
0 0.125 0
0.0416666 0.166666 0
0.0416666 0.125 0
0 0.125 0
0 0.0833333 0
0.0416666 0.125 0
0.0416666 0.083333 0
0.541667 0.0416655 0
0.541667 0 0
0.583333 0.0416656 0
0.583333 0 0
0.541666 0.0833311 0
0.541667 0.0416655 0
0.583333 0.0833311 0
0.583333 0.0416656 0
0.5 0.0833311 0
0.5 0.0416655 0
0.541666 0.0833311 0
0.541667 0.0416655 0
0.5 0.0416655 0
0.5 0 0
0.541667 0.0416655 0
0.541667 0 0
0 0.0833333 0
0 0.0416667 0
0.0416666 0.083333 0
0.0416666 0.0416665 0
0 0.0416667 0
0 0 0
0.0416666 0.0416665 0
0.0416667 0 0
0.0416666 0.0416665 0
0.0416667 0 0
0.0833333 0.0416664 0
0.0833333 0 0
0.0416666 0.083333 0
0.0416666 0.0416665 0
0.0833333 0.0833327 0
0.0833333 0.0416664 0
0.208333 0.291663 0
0.166666 0.291663 0
0.208333 0.249996 0
0.166666 0.249997 0
0.958333 0.0416665 0
0.916667 0.0416664 0
0.958333 0 0
0.916667 0 0
1 0.0416667 0
0.958333 0.0416665 0
1 0 0
0.958333 0 0
1 0.0833333 0
0.958333 0.083333 0
1 0.0416667 0
0.958333 0.0416665 0
0.958333 0.083333 0
0.916667 0.0833328 0
0.958333 0.0416665 0
0.916667 0.0416664 0
0.0833331 0.291665 0
0.0833331 0.249998 0
0.125 0.291664 0
0.125 0.249998 0
0.125 0.291664 0
0.125 0.249998 0
0.166666 0.291663 0
0.166666 0.249997 0
0.666666 0.458327 0
0.624999 0.458326 0
0.666666 0.41666 0
0.624999 0.41666 0
0.666666 0.499993 0
0.624999 0.499993 0
0.666666 0.458327 0
0.624999 0.458326 0
0.624999 0.499993 0
0.583332 0.499992 0
0.624999 0.458326 0
0.583332 0.458326 0
0.624999 0.458326 0
0.583332 0.458326 0
0.624999 0.41666 0
0.583332 0.416659 0
0.666666 0.708328 0
0.708333 0.708328 0
0.666666 0.749995 0
0.708333 0.749996 0
0.666666 0.666661 0
0.708333 0.666661 0
0.666666 0.708328 0
0.708333 0.708328 0
0.416666 0.0833311 0
0.375 0.0833312 0
0.416667 0.0416656 0
0.375 0.0416656 0
0.375 0.0833312 0
0.333333 0.0833314 0
0.375 0.0416656 0
0.333333 0.0416657 0
0.375 0.0416656 0
0.333333 0.0416657 0
0.375 0 0
0.333333 0 0
0.416667 0.0416656 0
0.375 0.0416656 0
0.416667 0 0
0.375 0 0
0.416666 0.749994 0
0.458333 0.749994 0
0.416666 0.791662 0
0.458333 0.791662 0
0.458333 0.749994 0
0.499999 0.749994 0
0.458333 0.791662 0
0.499999 0.791662 0
0.458333 0.791662 0
0.499999 0.791662 0
0.458333 0.833329 0
0.499999 0.833329 0
0.666666 0.624994 0
0.708333 0.624994 0
0.666666 0.666661 0
0.708333 0.666661 0
0.666666 0.583327 0
0.708333 0.583327 0
0.666666 0.624994 0
0.708333 0.624994 0
0.625 0.0833312 0
0.583333 0.0833311 0
0.625 0.0416656 0
0.583333 0.0416656 0
0.625 0.0416656 0
0.583333 0.0416656 0
0.625 0 0
0.583333 0 0
0.416666 0.499992 0
0.374999 0.499993 0
0.416666 0.458326 0
0.374999 0.458326 0
0.624999 0.54166 0
0.624999 0.583326 0
0.583332 0.541659 0
0.583332 0.583326 0
0.624999 0.499993 0
0.624999 0.54166 0
0.583332 0.499992 0
0.583332 0.541659 0
0.666666 0.499993 0
0.666666 0.54166 0
0.624999 0.499993 0
0.624999 0.54166 0
0.666666 0.54166 0
0.666666 0.583327 0
0.624999 0.54166 0
0.624999 0.583326 0
0.916667 0.0416664 0
0.875 0.0416662 0
0.916667 0 0
0.875 0 0
0.916667 0.0833328 0
0.875 0.0833325 0
0.916667 0.0416664 0
0.875 0.0416662 0
0.5 0.124997 0
0.5 0.0833311 0
0.541666 0.124997 0
0.541666 0.0833311 0
0.541666 0.124997 0
0.541666 0.0833311 0
0.583333 0.124997 0
0.583333 0.0833311 0
0.624999 0.374993 0
0.624999 0.41666 0
0.583332 0.374993 0
0.583332 0.416659 0
0.416666 0.499992 0
0.416666 0.541659 0
0.374999 0.499993 0
0.374999 0.541659 0
0.416666 0.541659 0
0.416666 0.583326 0
0.374999 0.541659 0
0.374999 0.583326 0
0.416666 0.624993 0
0.416666 0.66666 0
0.374999 0.624993 0
0.374999 0.66666 0
0.374999 0.624993 0
0.374999 0.66666 0
0.333332 0.624994 0
0.333333 0.666661 0
0.374999 0.583326 0
0.374999 0.624993 0
0.333332 0.583326 0
0.333332 0.624994 0
0.416666 0.583326 0
0.416666 0.624993 0
0.374999 0.583326 0
0.374999 0.624993 0
0.666666 0.54166 0
0.708333 0.541661 0
0.666666 0.583327 0
0.708333 0.583327 0
0.416666 0.708327 0
0.416666 0.749994 0
0.374999 0.708328 0
0.374999 0.749995 0
0.416666 0.66666 0
0.416666 0.708327 0
0.374999 0.66666 0
0.374999 0.708328 0
0.666666 0.583327 0
0.666666 0.624994 0
0.624999 0.583326 0
0.624999 0.624993 0
0.666666 0.624994 0
0.666666 0.666661 0
0.624999 0.624993 0
0.624999 0.66666 0
0.624999 0.624993 0
0.624999 0.66666 0
0.583332 0.624993 0
0.583332 0.66666 0
0.624999 0.583326 0
0.624999 0.624993 0
0.583332 0.583326 0
0.583332 0.624993 0
0.499999 0.66666 0
0.541666 0.66666 0
0.499999 0.708327 0
0.541666 0.708327 0
0.541666 0.66666 0
0.583332 0.66666 0
0.541666 0.708327 0
0.583333 0.708327 0
0.541666 0.708327 0
0.583333 0.708327 0
0.541666 0.749994 0
0.583333 0.749995 0
0.499999 0.708327 0
0.541666 0.708327 0
0.499999 0.749994 0
0.541666 0.749994 0
0.416666 0.0833311 0
0.416667 0.0416656 0
0.458333 0.0833311 0
0.458333 0.0416655 0
0.416667 0.0416656 0
0.416667 0 0
0.458333 0.0416655 0
0.458333 0 0
0.458333 0.0416655 0
0.458333 0 0
0.5 0.0416655 0
0.5 0 0
0.458333 0.0833311 0
0.458333 0.0416655 0
0.5 0.0833311 0
0.5 0.0416655 0
0.541666 0.791662 0
0.583333 0.791662 0
0.541666 0.833329 0
0.583333 0.833329 0
0.499999 0.791662 0
0.541666 0.791662 0
0.499999 0.833329 0
0.541666 0.833329 0
0.499999 0.749994 0
0.541666 0.749994 0
0.499999 0.791662 0
0.541666 0.791662 0
0.541666 0.749994 0
0.583333 0.749995 0
0.541666 0.791662 0
0.583333 0.791662 0
0.208333 0.0833319 0
0.166667 0.0833322 0
0.208333 0.041666 0
0.166667 0.0416661 0
0.208333 0.041666 0
0.166667 0.0416661 0
0.208333 0 0
0.166667 0 0
0.25 0.0416658 0
0.208333 0.041666 0
0.25 0 0
0.208333 0 0
0.25 0.0833317 0
0.208333 0.0833319 0
0.25 0.0416658 0
0.208333 0.041666 0
0.333333 0.0833314 0
0.291666 0.0833315 0
0.333333 0.0416657 0
0.291667 0.0416658 0
0.291666 0.0833315 0
0.25 0.0833317 0
0.291667 0.0416658 0
0.25 0.0416658 0
0.291667 0.0416658 0
0.25 0.0416658 0
0.291667 0 0
0.25 0 0
0.333333 0.0416657 0
0.291667 0.0416658 0
0.333333 0 0
0.291667 0 0
0.624999 0.791662 0
0.625 0.83333 0
0.583333 0.791662 0
0.583333 0.833329 0
0.624999 0.749995 0
0.624999 0.791662 0
0.583333 0.749995 0
0.583333 0.791662 0
0.666666 0.749995 0
0.666666 0.791663 0
0.624999 0.749995 0
0.624999 0.791662 0
0.666666 0.791663 0
0.666666 0.83333 0
[...]
POINT_DATA 39564
SCALARS solution_0 double 1
LOOKUP_TABLE default
-0.0246531 -0.0132919 -0.0406806 -0.023178 -0.0369189 -0.0246531 -0.0589342 -0.0406806 -0.0185389 -0.01192 -0.0369189 -0.0246531 -0.01192 -0.00613646 -0.0246531 -0.0132919 -0.0639092 -0.0673675 -0.0158787 -0.0194596 -0.0611447 -0.0639092 -0.0136255 -0.0158787 -0.109179 -0.112484 -0.0611447 -0.0639092 -0.112484 -0.115834 -0.0639092 -0.0673675 0.0236783 0.0164292 0.0732025 0.0652857 0.0289588 0.0236783 0.0783616 0.0732025 -0.0194596 -0.024426 0.0289588 0.0236783 -0.024426 -0.0308398 0.0236783 0.0164292 -0.0673675 -0.0718061 -0.0194596 -0.024426 -0.115834 -0.119858 -0.0673675 -0.0718061 -0.119858 -0.125066 -0.0718061 -0.0774439 -0.0718061 -0.0774439 -0.024426 -0.0308398 -0.165836 -0.216901 -0.170007 -0.222082 -0.170007 -0.222082 -0.175372 -0.228146 -0.119858 -0.170007 -0.125066 -0.175372 -0.115834 -0.165836 -0.119858 -0.170007 -0.105818 -0.0757571 -0.0838762 -0.0589342 -0.137357 -0.105818 -0.111042 -0.0838762 -0.12288 -0.0890476 -0.105818 -0.0757571 -0.265265 -0.272086 -0.216901 -0.222082 -0.272086 -0.278682 -0.222082 -0.228146 -0.112484 -0.162022 -0.115834 -0.165836 -0.109179 -0.157514 -0.112484 -0.162022 -0.157514 -0.204525 -0.162022 -0.211504 -0.162022 -0.211504 -0.165836 -0.216901 -0.0485948 -0.0369189 -0.0757571 -0.0589342 -0.058059 -0.0485948 -0.0890476 -0.0757571 -0.0307688 -0.0253789 -0.058059 -0.0485948 -0.0253789 -0.0185389 -0.0485948 -0.0369189 -0.0136255 -0.0158787 0.0335688 0.0322655 -0.0158787 -0.0194596 0.0322655 0.0289588 0.0322655 0.0289588 0.0807469 0.0783616 0.0335688 0.0322655 0.0802643 0.0807469 0.129077 0.128418 0.176005 0.17799 0.125846 0.129077 0.169091 0.176005 0.0802643 0.0807469 0.125846 0.129077 0.0807469 0.0783616 0.129077 0.128418 -0.257493 -0.265265 -0.211504 -0.216901 0.0545361 0.103701 0.0652857 0.115761 0.0407905 0.0877016 0.0545361 0.103701 0.0877016 0.136312 0.103701 0.154174 0.103701 0.154174 0.115761 0.16705 -0.00318102 -0.00147044 -0.01192 -0.00613646 -0.00498744 -0.00318102 -0.0185389 -0.01192 0 0 -0.00498744 -0.00318102 0 0 -0.00318102 -0.00147044 -0.0569921 0 -0.0507789 0 -0.110122 -0.0569921 -0.0998083 -0.0507789 -0.11469 -0.0596133 -0.110122 -0.0569921 -0.0596133 0 -0.0569921 0 0 0 -0.00147044 -0.00116613 0 0 -0.00116613 0 -0.00116613 0 -0.00188722 0 -0.00147044 -0.00116613 -0.00613646 -0.00188722 -0.132619 -0.0970019 -0.12288 -0.0890476 -0.000488239 0.00199492 0 0 0 -0.000488239 0 0 0 0.000903909 0 -0.000488239 0.000903909 0.00197017 -0.000488239 0.00199492 -0.0341235 -0.0307688 -0.0637931 -0.058059 -0.0637931 -0.058059 -0.0970019 -0.0890476 -0.192834 -0.182806 -0.245037 -0.23587 -0.141538 -0.132092 -0.192834 -0.182806 -0.132092 -0.125066 -0.182806 -0.175372 -0.182806 -0.175372 -0.23587 -0.228146 0.0877016 0.0676387 0.136312 0.113507 0.0407905 0.023718 0.0877016 0.0676387 -0.106581 -0.095404 -0.0540982 -0.0472752 -0.095404 -0.0812785 -0.0472752 -0.0390354 -0.0472752 -0.0390354 0 0 -0.0540982 -0.0472752 0 0 0.169091 0.176005 0.208575 0.219871 0.176005 0.17799 0.219871 0.225214 0.219871 0.225214 0.258974 0.268756 -0.00452479 -0.0190884 0.0407905 0.023718 -0.0490102 -0.0620642 -0.00452479 -0.0190884 -0.0847323 -0.0998083 -0.0413661 -0.0507789 -0.0413661 -0.0507789 0 0 -0.109179 -0.105109 -0.157514 -0.151136 -0.084633 -0.0388666 -0.0774439 -0.0308398 -0.132092 -0.084633 -0.125066 -0.0774439 -0.141538 -0.0940267 -0.132092 -0.084633 -0.0940267 -0.0490102 -0.084633 -0.0388666 0.00199492 0.00383131 0 0 0.00197017 0.00142299 0.00199492 0.00383131 -0.170595 -0.11469 -0.166215 -0.110122 -0.166215 -0.110122 -0.154233 -0.0998083 -0.285439 -0.23587 -0.278682 -0.228146 -0.109179 -0.0611447 -0.105109 -0.0585403 -0.0611447 -0.0136255 -0.0585403 -0.0124111 0.0335688 0.0802643 0.0328565 0.0768694 0.0328565 0.0768694 0.0304791 0.0708819 -0.0124111 0.0328565 -0.0118952 0.0304791 -0.0136255 0.0335688 -0.0124111 0.0328565 -0.0940267 -0.106738 -0.0490102 -0.0620642 0.125846 0.169091 0.118731 0.157502 0.0802643 0.125846 0.0768694 0.118731 -0.0490102 -0.00452479 -0.0388666 0.00711186 -0.00452479 0.0407905 0.00711186 0.0545361 0.00711186 0.0545361 0.0164292 0.0652857 -0.0388666 0.00711186 -0.0308398 0.0164292 0.0783616 0.0732025 0.128418 0.123977 0.0732025 0.0652857 0.123977 0.115761 0.123977 0.115761 0.174986 0.16705 0.128418 0.123977 0.17799 0.174986 -0.106581 -0.0540982 -0.113366 -0.0584931 -0.0540982 0 -0.0584931 0 -0.0584931 0 -0.0596133 0 -0.113366 -0.0584931 -0.11469 -0.0596133 0.224563 0.217845 0.271603 0.267806 0.225214 0.224563 0.268756 0.271603 0.17799 0.174986 0.225214 0.224563 0.174986 0.16705 0.224563 0.217845 -0.0355686 -0.023178 -0.0146346 -0.00863794 -0.0146346 -0.00863794 0 0 -0.0220103 -0.0146346 0 0 -0.0500021 -0.0355686 -0.0220103 -0.0146346 -0.0812785 -0.0656337 -0.0390354 -0.03035 -0.0656337 -0.0500021 -0.03035 -0.0220103 -0.03035 -0.0220103 0 0 -0.0390354 -0.03035 0 0 0.205153 0.257579 0.217845 0.267806 0.154174 0.205153 0.16705 0.217845 0.136312 0.186734 0.154174 0.205153 0.186734 0.240921 0.205153 0.257579 -0.164878 -0.138417 -0.124173 -0.102712 -0.138417 -0.111042 -0.102712 -0.0806189 -0.102712 -0.0806189 -0.0656337 -0.0500021 -0.124173 -0.102712 -0.0812785 -0.0656337 -0.188395 -0.164878 -0.143407 -0.124173 -0.143407 -0.124173 -0.095404 -0.0812785 -0.158349 -0.143407 -0.106581 -0.095404 -0.158349 -0.106581 -0.167768 -0.113366 -0.167768 -0.113366 -0.170595 -0.11469 -0.00613646 -0.00188722 -0.0132919 -0.00432171 -0.00188722 0 -0.00432171 0 -0.00432171 0 -0.00863794 0 -0.0132919 -0.00432171 -0.023178 -0.00863794 0.136312 0.113507 0.186734 0.162817 -0.0595913 -0.0406806 -0.0355686 -0.023178 -0.0806189 -0.0595913 -0.0500021 -0.0355686 -0.111042 -0.0838762 -0.0806189 -0.0595913 -0.0838762 -0.0589342 -0.0595913 -0.0406806 0.159824 0.136792 0.157347 0.136607 0.136792 0.113086 0.136607 0.115292 0.157347 0.136607 0.153899 0.135309 0.136607 0.115292 0.135309 0.116229 0.202747 0.181888 0.195966 0.177216 0.181888 0.159824 0.177216 0.157347 0.195966 0.177216 0.188495 0.171711 0.177216 0.157347 0.171711 0.153899 0.0652057 0.0420748 0.0724334 0.051844 0.0420748 0.0204336 0.051844 0.0326373 0.0724334 0.051844 0.0779701 0.0596115 0.051844 0.0326373 0.0596115 0.0424293 0.113086 0.0890705 0.115292 0.093758 0.0890705 0.0652057 0.093758 0.0724334 0.115292 0.093758 0.116229 0.0969895 0.093758 0.0724334 0.0969895 0.0779701 0.240126 0.222209 0.229332 0.213392 0.222209 0.202747 0.213392 0.195966 0.229332 0.213392 0.218191 0.204045 0.213392 0.195966 0.204045 0.188495 0.270914 0.256387 0.256302 0.243662 0.256387 0.240126 0.243662 0.229332 0.256302 0.243662 0.241795 0.230796 0.243662 0.229332 0.230796 0.218191 0.0994468 0.126155 0.117339 0.144267 0.126155 0.157492 0.144267 0.175442 0.117339 0.144267 0.133752 0.160715 0.144267 0.175442 0.160715 0.191464 0.0542208 0.0758162 0.0709944 0.0932437 0.0758162 0.0994468 0.0932437 0.117339 0.0709944 0.0932437 0.0863947 0.109305 0.0932437 0.117339 0.109305 0.133752 -0.0142822 0.00172018 0.00119168 0.0155963 0.00172018 0.0140846 0.0155963 0.0270277 0.00119168 0.0155963 0.0204336 0.0326373 0.0155963 0.0270277 0.0326373 0.0424293 0.014417 0.0339298 0.0297047 0.0499625 0.0339298 0.0542208 0.0499625 0.0709944 0.0297047 0.0499625 0.0435375 0.0645998 0.0499625 0.0709944 0.0645998 0.0863947 -0.0237597 -0.00470774 -0.00973745 0.00989687 -0.00470774 0.014417 0.00989687 0.0297047 -0.00973745 0.00989687 0.00268567 0.0229864 0.00989687 0.0297047 0.0229864 0.0435375 -0.188732 -0.181243 -0.208146 -0.203472 -0.181243 -0.172354 -0.203472 -0.196368 -0.208146 -0.203472 -0.225287 -0.224206 -0.203472 -0.196368 -0.224206 -0.219528 -0.16259 -0.145665 -0.156271 -0.136401 -0.145665 -0.128172 -0.136401 -0.116487 -0.156271 -0.136401 -0.146353 -0.124787 -0.136401 -0.116487 -0.124787 -0.103516 -0.0398997 -0.0469584 -0.0646781 -0.074948 -0.0469584 -0.0544684 -0.074948 -0.0852936 -0.0646781 -0.074948 -0.0944817 -0.107663 -0.074948 -0.0852936 -0.107663 -0.120605 -0.128172 -0.110245 -0.116487 -0.0966894 -0.110245 -0.0922552 -0.0966894 -0.0772732 -0.116487 -0.0966894 -0.103516 -0.082783 -0.0966894 -0.0772732 -0.082783 -0.062578 -0.062578 -0.0429217 -0.0495014 -0.029463 -0.0429217 -0.0237597 -0.029463 -0.00973745 -0.0495014 -0.029463 -0.0379539 -0.0175601 -0.029463 -0.00973745 -0.0175601 0.00268567 0.270914 0.256302 0.283641 0.26718 0.256302 0.241795 0.26718 0.251199 0.283641 0.26718 0.294591 0.276195 0.26718 0.251199 0.276195 0.258974 0.294591 0.276195 0.303738 0.283628 0.276195 0.258974 0.283628 0.263865 0.303738 0.283628 0.311132 0.288903 0.283628 0.263865 0.288903 0.268756 0.162817 0.14887 0.189606 0.175752 0.14887 0.133752 0.175752 0.160715 0.189606 0.175752 0.219009 0.206 0.175752 0.160715 0.206 0.191464 0.310348 0.27241 0.303364 0.263448 0.27241 0.240921 0.263448 0.230641 0.303364 0.263448 0.294639 0.252828 0.263448 0.230641 0.252828 0.219009 0.310348 0.315793 0.27241 0.280014 0.315793 0.319807 0.280014 0.285901 0.27241 0.280014 0.240921 0.24925 0.280014 0.285901 0.24925 0.257579 0.319807 0.322277 0.285901 0.290545 0.322277 0.323308 0.290545 0.29339 0.285901 0.290545 0.257579 0.262692 0.290545 0.29339 0.262692 0.267806 0.311132 0.288903 0.31666 0.292707 0.288903 0.268756 0.292707 0.270179 0.31666 0.292707 0.320549 0.294506 0.292707 0.270179 0.294506 0.271603 0.320549 0.294506 0.322697 0.294907 0.294506 0.271603 0.294907 0.269704 0.322697 0.294907 0.323308 0.29339 0.294907 0.269704 0.29339 0.267806 -0.3298 -0.327901 -0.331937 -0.329066 -0.327901 -0.318428 -0.329066 -0.318419 -0.331937 -0.329066 -0.33259 -0.32834 -0.329066 -0.318419 -0.32834 -0.316203 -0.311854 -0.324199 -0.315087 -0.327026 -0.324199 -0.3298 -0.327026 -0.331937 -0.315087 -0.327026 -0.31768 -0.328802 -0.327026 -0.331937 -0.328802 -0.33259 0.0108246 0.0130538 0.0139136 0.0176389 0.0130538 0.0146217 0.0176389 0.020814 0.0139136 0.0176389 0.0163779 0.0214786 0.0176389 0.020814 0.0214786 0.0261524 -0.317737 -0.30762 -0.319912 -0.307136 -0.30762 -0.290928 -0.307136 -0.288419 -0.319912 -0.307136 -0.320459 -0.305577 -0.307136 -0.288419 -0.305577 -0.285439 -0.328583 -0.331534 -0.320189 -0.325489 -0.331534 -0.33259 -0.325489 -0.32834 -0.320189 -0.325489 -0.304295 -0.311565 -0.325489 -0.32834 -0.311565 -0.316203 -0.314584 -0.322917 -0.301147 -0.312203 -0.322917 -0.328583 -0.312203 -0.320189 -0.301147 -0.312203 -0.280962 -0.294159 -0.312203 -0.320189 -0.294159 -0.304295 -0.320459 -0.319504 -0.32858 -0.329301 -0.319504 -0.31768 -0.329301 -0.328802 -0.32858 -0.329301 -0.328583 -0.331534 -0.329301 -0.328802 -0.331534 -0.33259 0 0.00156328 0 0.00162175 0.00156328 0.00573464 0.00162175 0.00595657 0 0.00162175 0 0.00164532 0.00162175 0.00595657 0.00164532 0.00600186 0.00252165 0.00624437 9.18694e-05 0.00193629 0.00624437 0.0120269 0.00193629 0.00628602 9.18694e-05 0.00193629 -0.00364308 -0.00445421 0.00193629 0.00628602 -0.00445421 -0.00207855 0 0.00055639 0 -0.000125735 0.00055639 0.00252165 -0.000125735 9.18694e-05 0 -0.000125735 0 -0.00128361 -0.000125735 9.18694e-05 -0.00128361 -0.00364308 -0.303519 -0.308011 -0.286282 -0.290328 -0.308011 -0.311854 -0.290328 -0.294004 -0.286282 -0.290328 -0.265265 -0.268675 -0.290328 -0.294004 -0.268675 -0.272086 -0.311854 -0.315087 -0.294004 -0.29735 -0.315087 -0.31768 -0.29735 -0.300489 -0.294004 -0.29735 -0.272086 -0.275384 -0.29735 -0.300489 -0.275384 -0.278682 -0.32151 -0.320509 -0.326302 -0.325012 -0.320509 -0.312501 -0.325012 -0.316408 -0.326302 -0.325012 -0.3298 -0.327901 -0.325012 -0.316408 -0.327901 -0.318428 -0.303519 -0.315619 -0.308011 -0.320391 -0.315619 -0.32151 -0.320391 -0.326302 -0.308011 -0.320391 -0.311854 -0.324199 -0.320391 -0.326302 -0.324199 -0.3298 -0.0793296 -0.072443 -0.0957721 -0.087358 -0.072443 -0.0648754 -0.087358 -0.0782292 -0.0957721 -0.087358 -0.111358 -0.10141 -0.087358 -0.0782292 -0.10141 -0.0907407 -0.292216 -0.298284 -0.276601 -0.281771 -0.298284 -0.303519 -0.281771 -0.286282 -0.276601 -0.281771 -0.257493 -0.261379 -0.281771 -0.286282 -0.261379 -0.265265 -0.277003 -0.285156 -0.263629 -0.27061 -0.285156 -0.292216 -0.27061 -0.276601 -0.263629 -0.27061 -0.246503 -0.252295 -0.27061 -0.276601 -0.252295 -0.257493 -0.0143998 -0.0186402 -0.0220437 -0.0277675 -0.0186402 -0.0225871 -0.0277675 -0.0330717 -0.0220437 -0.0277675 -0.0305062 -0.0377218 -0.0277675 -0.0330717 -0.0377218 -0.044398 -0.0225871 -0.0261383 -0.0330717 -0.0378273 -0.0261383 -0.0292023 -0.0378273 -0.041919 -0.0330717 -0.0378273 -0.044398 -0.0503805 -0.0378273 -0.041919 -0.0503805 -0.0555291 -0.231745 -0.214309 -0.222568 -0.206559 -0.214309 -0.194642 -0.206559 -0.188211 -0.222568 -0.206559 -0.21211 -0.197561 -0.206559 -0.188211 -0.197561 -0.18063 -0.257013 -0.246205 -0.245096 -0.235609 -0.246205 -0.231745 -0.235609 -0.222568 -0.245096 -0.235609 -0.231925 -0.223729 -0.235609 -0.222568 -0.223729 -0.21211 -0.277003 -0.263629 -0.267643 -0.255527 -0.263629 -0.246503 -0.255527 -0.239682 -0.267643 -0.255527 -0.257013 -0.246205 -0.255527 -0.239682 -0.246205 -0.231745 -0.188773 -0.218382 -0.166436 -0.195489 -0.218382 -0.245176 -0.195489 -0.222796 -0.166436 -0.195489 -0.143611 -0.171084 -0.195489 -0.222796 -0.171084 -0.197734 -0.126097 -0.157542 -0.107895 -0.136793 -0.157542 -0.188773 -0.136793 -0.166436 -0.107895 -0.136793 -0.0905428 -0.116393 -0.136793 -0.166436 -0.116393 -0.143611 -0.277003 -0.267643 -0.285821 -0.275346 -0.267643 -0.257013 -0.275346 -0.26358 -0.285821 -0.275346 -0.289431 -0.278112 -0.275346 -0.26358 -0.278112 -0.265495 -0.257013 -0.245096 -0.26358 -0.250545 -0.245096 -0.231925 -0.250545 -0.236313 -0.26358 -0.250545 -0.265495 -0.251645 -0.250545 -0.236313 -0.251645 -0.236664 -0.265495 -0.251645 -0.262596 -0.248305 -0.251645 -0.236664 -0.248305 -0.232948 -0.262596 -0.248305 -0.255009 -0.240682 -0.248305 -0.232948 -0.240682 -0.225338 -0.289431 -0.278112 -0.287492 -0.275692 -0.278112 -0.265495 -0.275692 -0.262596 -0.287492 -0.275692 -0.280044 -0.268173 -0.275692 -0.262596 -0.268173 -0.255009 -0.290928 -0.292233 -0.269576 -0.273135 -0.292233 -0.291728 -0.273135 -0.275539 -0.269576 -0.273135 -0.245037 -0.25025 -0.273135 -0.275539 -0.25025 -0.254782 -0.245072 -0.218015 -0.222633 -0.195617 -0.218015 -0.189421 -0.195617 -0.167951 -0.222633 -0.195617 -0.197734 -0.171516 -0.195617 -0.167951 -0.171516 -0.145448 -0.280962 -0.255625 -0.264589 -0.238143 -0.255625 -0.226991 -0.238143 -0.209255 -0.264589 -0.238143 -0.245072 -0.218015 -0.238143 -0.209255 -0.218015 -0.189421 -0.231925 -0.223729 -0.217587 -0.210618 -0.223729 -0.21211 -0.210618 -0.200389 -0.217587 -0.210618 -0.202215 -0.196384 -0.210618 -0.200389 -0.196384 -0.187485 -0.21211 -0.197561 -0.200389 -0.187309 -0.197561 -0.18063 -0.187309 -0.171845 -0.200389 -0.187309 -0.187485 -0.175848 -0.187309 -0.171845 -0.175848 -0.161869 -0.187485 -0.175848 -0.173527 -0.163281 -0.175848 -0.161869 -0.163281 -0.150773 -0.173527 -0.163281 -0.15869 -0.149758 -0.163281 -0.150773 -0.149758 -0.138681 -0.202215 -0.196384 -0.185982 -0.181182 -0.196384 -0.187485 -0.181182 -0.173527 -0.185982 -0.181182 -0.169095 -0.165206 -0.181182 -0.173527 -0.165206 -0.15869 -0.0944817 -0.127678 -0.0813887 -0.111816 -0.127678 -0.162321 -0.111816 -0.144437 -0.0813887 -0.111816 -0.0689012 -0.0961019 -0.111816 -0.144437 -0.0961019 -0.126097 -0.0689012 -0.0961019 -0.0573087 -0.0810267 -0.0961019 -0.126097 -0.0810267 -0.107895 -0.0573087 -0.0810267 -0.046807 -0.0670781 -0.0810267 -0.107895 -0.0670781 -0.0905428 -0.0273794 -0.0457819 -0.0222162 -0.0375416 -0.0457819 -0.0689012 -0.0375416 -0.0573087 -0.0222162 -0.0375416 -0.0176515 -0.0302672 -0.0375416 -0.0573087 -0.0302672 -0.046807 -0.0398997 -0.0646781 -0.0333962 -0.0548646 -0.0646781 -0.0944817 -0.0548646 -0.0813887 -0.0333962 -0.0548646 -0.0273794 -0.0457819 -0.0548646 -0.0813887 -0.0457819 -0.0689012 -0.143611 -0.171084 -0.121313 -0.146456 -0.171084 -0.197734 -0.146456 -0.171516 -0.121313 -0.146456 -0.100257 -0.122625 -0.146456 -0.171516 -0.122625 -0.145448 -0.100257 -0.122625 -0.0808767 -0.100289 -0.122625 -0.145448 -0.100289 -0.120513 -0.0808767 -0.100289 -0.0633842 -0.0798601 -0.100289 -0.120513 -0.0798601 -0.097363 -0.0598836 -0.0791122 -0.0468417 -0.0628891 -0.0791122 -0.100257 -0.0628891 -0.0808767 -0.0468417 -0.0628891 -0.035306 -0.0484087 -0.0628891 -0.0808767 -0.0484087 -0.0633842 -0.0905428 -0.116393 -0.0744685 -0.0970184 -0.116393 -0.143611 -0.0970184 -0.121313 -0.0744685 -0.0970184 -0.0598836 -0.0791122 -0.0970184 -0.121313 -0.0791122 -0.100257 0.0529786 0.0665685 0.0481647 0.0602289 0.0665685 0.0788856 0.0602289 0.0709679 0.0481647 0.0602289 0.0434861 0.0539949 0.0602289 0.0709679 0.0539949 0.0631406 0.0788856 0.0897455 0.0709679 0.0801827 0.0897455 0.0989639 0.0801827 0.0876756 0.0709679 0.0801827 0.0631406 0.0707113 0.0801827 0.0876756 0.0707113 0.076494 0.0631406 0.0707113 0.0555012 0.061453 0.0707113 0.076494 0.061453 0.0655769 0.0555012 0.061453 0.0480684 0.0524626 0.061453 0.0655769 0.0524626 0.0550321 0.0434861 0.0539949 0.0390108 0.0479465 0.0539949 0.0631406 0.0479465 0.0555012 0.0390108 0.0479465 0.0347206 0.0420799 0.0479465 0.0555012 0.0420799 0.0480684 -0.0104717 -0.00993059 -0.0212915 -0.0202194 -0.00993059 -0.00926857 -0.0202194 -0.0190192 -0.0212915 -0.0202194 -0.0341235 -0.0324462 -0.0202194 -0.0190192 -0.0324462 -0.0307688 -0.0108805 -0.0109515 -0.0219273 -0.0219104 -0.0109515 -0.0104717 -0.0219104 -0.0212915 -0.0219273 -0.0219104 -0.0352253 -0.0350603 -0.0219104 -0.0212915 -0.0350603 -0.0341235 0 0 -0.00266764 -0.00263554 0 0 -0.00263554 -0.00246088 -0.00266764 -0.00263554 -0.0104717 -0.00993059 -0.00263554 -0.00246088 -0.00993059 -0.00926857 0.0818837 0.0811436 0.0674588 0.0648213 0.0811436 0.0779701 0.0648213 0.0596115 0.0674588 0.0648213 0.05375 0.0494389 0.0648213 0.0596115 0.0494389 0.0424293 0.076494 0.0802816 0.0655769 0.0676493 0.0802816 0.0818837 0.0676493 0.0674588 0.0655769 0.0676493 0.0550321 0.0555405 0.0676493 0.0674588 0.0555405 0.05375 0.0989639 0.106364 0.0876756 0.0932558 0.106364 0.111784 0.0932558 0.09675 0.0876756 0.0932558 0.076494 0.0802816 0.0932558 0.09675 0.0802816 0.0818837 0.111784 0.115095 0.09675 0.0980191 0.115095 0.116229 0.0980191 0.0969895 0.09675 0.0980191 0.0818837 0.0811436 0.0980191 0.0969895 0.0811436 0.0779701 -0.090808 -0.0854633 -0.110071 -0.103366 -0.0854633 -0.0793296 -0.103366 -0.0957721 -0.110071 -0.103366 -0.128575 -0.120447 -0.103366 -0.0957721 -0.120447 -0.111358 -0.128575 -0.120447 -0.145971 -0.13637 -0.120447 -0.111358 -0.13637 -0.125771 -0.145971 -0.13637 -0.161869 -0.150773 -0.13637 -0.125771 -0.150773 -0.138681 -0.141766 -0.135681 -0.161861 -0.154482 -0.135681 -0.128575 -0.154482 -0.145971 -0.161861 -0.154482 -0.18063 -0.171845 -0.154482 -0.145971 -0.171845 -0.161869 -0.202215 -0.185982 -0.204751 -0.18776 -0.185982 -0.169095 -0.18776 -0.170224 -0.204751 -0.18776 -0.203894 -0.18646 -0.18776 -0.170224 -0.18646 -0.168595 -0.236664 -0.220691 -0.232948 -0.216682 -0.220691 -0.203894 -0.216682 -0.199686 -0.232948 -0.216682 -0.225338 -0.209147 -0.216682 -0.199686 -0.209147 -0.192306 -0.231925 -0.217587 -0.236313 -0.220997 -0.217587 -0.202215 -0.220997 -0.204751 -0.236313 -0.220997 -0.236664 -0.220691 -0.220997 -0.204751 -0.220691 -0.203894 -0.280962 -0.294159 -0.255625 -0.270264 -0.294159 -0.304295 -0.270264 -0.282009 -0.255625 -0.270264 -0.226991 -0.242315 -0.270264 -0.282009 -0.242315 -0.255048 -0.304295 -0.311565 -0.282009 -0.290921 -0.311565 -0.316203 -0.290921 -0.297123 -0.282009 -0.290921 -0.255048 -0.265127 -0.290921 -0.297123 -0.265127 -0.272577 0.0032309 0.00220155 0.00722496 0.00785825 0.00220155 0.000392665 0.00785825 0.00775595 0.00722496 0.00785825 0.0108246 0.0130538 0.00785825 0.00775595 0.0130538 0.0146217 0.000392665 -0.00183892 0.00775595 0.00721649 -0.00183892 -0.00414517 0.00721649 0.00656861 0.00775595 0.00721649 0.0146217 0.015756 0.00721649 0.00656861 0.015756 0.0167548 0.0146217 0.015756 0.020814 0.023583 0.015756 0.0167548 0.023583 0.0262082 0.020814 0.023583 0.0261524 0.0304992 0.023583 0.0262082 0.0304992 0.0347206 -0.318428 -0.302024 -0.318419 -0.30077 -0.302024 -0.279919 -0.30077 -0.277471 -0.318419 -0.30077 -0.316203 -0.297123 -0.30077 -0.277471 -0.297123 -0.272577 -0.312501 