# vtk DataFile Version 3.0
#This file was generated by the deal.II library on 2020/11/19 at 14:49:22
ASCII
DATASET UNSTRUCTURED_GRID

POINTS 37920 double
0.125 0.124999 0
0.125 0.0833324 0
0.166666 0.124998 0
0.166667 0.0833322 0
0.125 0.166665 0
0.125 0.124999 0
0.166666 0.166664 0
0.166666 0.124998 0
0.0833332 0.166666 0
0.0833332 0.124999 0
0.125 0.166665 0
0.125 0.124999 0
0.0833332 0.124999 0
0.0833333 0.0833327 0
0.125 0.124999 0
0.125 0.0833324 0
0.208333 0.20833 0
0.166666 0.208331 0
0.208333 0.166664 0
0.166666 0.166664 0
0.25 0.20833 0
0.208333 0.20833 0
0.25 0.166664 0
0.208333 0.166664 0
0.249999 0.249996 0
0.208333 0.249996 0
0.25 0.20833 0
0.208333 0.20833 0
0.208333 0.249996 0
0.166666 0.249997 0
0.208333 0.20833 0
0.166666 0.208331 0
0.708333 0.166663 0
0.708333 0.124997 0
0.75 0.166664 0
0.75 0.124998 0
0.666666 0.166663 0
0.666666 0.124997 0
0.708333 0.166663 0
0.708333 0.124997 0
0.666666 0.124997 0
0.666666 0.0833314 0
0.708333 0.124997 0
0.708333 0.0833316 0
0.708333 0.124997 0
0.708333 0.0833316 0
0.75 0.124998 0
0.75 0.0833317 0
0.499999 0.29166 0
0.499999 0.249994 0
0.541666 0.29166 0
0.541666 0.249994 0
0.541666 0.29166 0
0.541666 0.249994 0
0.583333 0.29166 0
0.583333 0.249994 0
0.125 0.208331 0
0.125 0.166665 0
0.166666 0.208331 0
0.166666 0.166664 0
0.125 0.249998 0
0.125 0.208331 0
0.166666 0.249997 0
0.166666 0.208331 0
0.0833331 0.249998 0
0.0833331 0.208332 0
0.125 0.249998 0
0.125 0.208331 0
0.0833331 0.208332 0
0.0833332 0.166666 0
0.125 0.208331 0
0.125 0.166665 0
0.416666 0.333327 0
0.374999 0.333327 0
0.416666 0.29166 0
0.374999 0.291661 0
0.374999 0.333327 0
0.333333 0.333327 0
0.374999 0.291661 0
0.333333 0.291661 0
0.374999 0.291661 0
0.333333 0.291661 0
0.374999 0.249995 0
0.333333 0.249995 0
0.416666 0.29166 0
0.374999 0.291661 0
0.416666 0.249994 0
0.374999 0.249995 0
0.0416666 0.125 0
0.0416666 0.083333 0
0.0833332 0.124999 0
0.0833333 0.0833327 0
0.0416666 0.166666 0
0.0416666 0.125 0
0.0833332 0.166666 0
0.0833332 0.124999 0
0 0.166667 0
0 0.125 0
0.0416666 0.166666 0
0.0416666 0.125 0
0 0.125 0
0 0.0833333 0
0.0416666 0.125 0
0.0416666 0.083333 0
0.541667 0.0416655 0
0.541667 0 0
0.583333 0.0416656 0
0.583333 0 0
0.541666 0.0833311 0
0.541667 0.0416655 0
0.583333 0.0833311 0
0.583333 0.0416656 0
0.5 0.0833311 0
0.5 0.0416655 0
0.541666 0.0833311 0
0.541667 0.0416655 0
0.5 0.0416655 0
0.5 0 0
0.541667 0.0416655 0
0.541667 0 0
0.666666 0.208329 0
0.666666 0.166663 0
0.708333 0.208329 0
0.708333 0.166663 0
0.708333 0.208329 0
0.708333 0.166663 0
0.75 0.20833 0
0.75 0.166664 0
0.666666 0.249995 0
0.666666 0.208329 0
0.708333 0.249995 0
0.708333 0.208329 0
0.333333 0.333327 0
0.333332 0.374993 0
0.291666 0.333328 0
0.291666 0.374994 0
0.291666 0.333328 0
0.291666 0.374994 0
0.249999 0.333328 0
0.249999 0.374994 0
0.666666 0.166663 0
0.624999 0.166663 0
0.666666 0.124997 0
0.625 0.124997 0
0.624999 0.166663 0
0.583333 0.166663 0
0.625 0.124997 0
0.583333 0.124997 0
0.625 0.124997 0
0.583333 0.124997 0
0.625 0.0833312 0
0.583333 0.0833311 0
0.666666 0.124997 0
0.625 0.124997 0
0.666666 0.0833314 0
0.625 0.0833312 0
0 0.0833333 0
0 0.0416667 0
0.0416666 0.083333 0
0.0416666 0.0416665 0
0 0.0416667 0
0 0 0
0.0416666 0.0416665 0
0.0416667 0 0
0.0416666 0.0416665 0
0.0416667 0 0
0.0833333 0.0416664 0
0.0833333 0 0
0.0416666 0.083333 0
0.0416666 0.0416665 0
0.0833333 0.0833327 0
0.0833333 0.0416664 0
0.791666 0.124998 0
0.75 0.124998 0
0.791666 0.083332 0
0.75 0.0833317 0
0.833333 0.124998 0
0.791666 0.124998 0
0.833333 0.0833322 0
0.791666 0.083332 0
0.833333 0.166665 0
0.791666 0.166664 0
0.833333 0.124998 0
0.791666 0.124998 0
0.791666 0.166664 0
0.75 0.166664 0
0.791666 0.124998 0
0.75 0.124998 0
0.249999 0.291662 0
0.208333 0.291663 0
0.249999 0.249996 0
0.208333 0.249996 0
0.249999 0.333328 0
0.208333 0.333329 0
0.249999 0.291662 0
0.208333 0.291663 0
0.208333 0.333329 0
0.166666 0.33333 0
0.208333 0.291663 0
0.166666 0.291663 0
0.208333 0.291663 0
0.166666 0.291663 0
0.208333 0.249996 0
0.166666 0.249997 0
0.958333 0.0416665 0
0.916667 0.0416664 0
0.958333 0 0
0.916667 0 0
1 0.0416667 0
0.958333 0.0416665 0
1 0 0
0.958333 0 0
1 0.0833333 0
0.958333 0.083333 0
1 0.0416667 0
0.958333 0.0416665 0
0.958333 0.083333 0
0.916667 0.0833328 0
0.958333 0.0416665 0
0.916667 0.0416664 0
0.791666 0.20833 0
0.75 0.20833 0
0.791666 0.166664 0
0.75 0.166664 0
0.833333 0.208331 0
0.791666 0.20833 0
0.833333 0.166665 0
0.791666 0.166664 0
0.125 0.291664 0
0.125 0.249998 0
0.166666 0.291663 0
0.166666 0.249997 0
0.249999 0.333328 0
0.249999 0.374994 0
0.208333 0.333329 0
0.208333 0.374995 0
0.0416666 0.249999 0
0.0416666 0.208333 0
0.0833331 0.249998 0
0.0833331 0.208332 0
0 0.25 0
0 0.208333 0
0.0416666 0.249999 0
0.0416666 0.208333 0
0 0.208333 0
0 0.166667 0
0.0416666 0.208333 0
0.0416666 0.166666 0
0.0416666 0.208333 0
0.0416666 0.166666 0
0.0833331 0.208332 0
0.0833332 0.166666 0
0.291666 0.333328 0
0.249999 0.333328 0
0.291666 0.291661 0
0.249999 0.291662 0
0.291666 0.291661 0
0.249999 0.291662 0
0.291666 0.249995 0
0.249999 0.249996 0
0.333333 0.291661 0
0.291666 0.291661 0
0.333333 0.249995 0
0.291666 0.249995 0
0.333333 0.333327 0
0.291666 0.333328 0
0.333333 0.291661 0
0.291666 0.291661 0
0.624999 0.208329 0
0.583333 0.208328 0
0.624999 0.166663 0
0.583333 0.166663 0
0.666666 0.208329 0
0.624999 0.208329 0
0.666666 0.166663 0
0.624999 0.166663 0
0.666666 0.249995 0
0.624999 0.249995 0
0.666666 0.208329 0
0.624999 0.208329 0
0.624999 0.249995 0
0.583333 0.249994 0
0.624999 0.208329 0
0.583333 0.208328 0
0.541666 0.249994 0
0.541666 0.208328 0
0.583333 0.249994 0
0.583333 0.208328 0
0.499999 0.249994 0
0.499999 0.208328 0
0.541666 0.249994 0
0.541666 0.208328 0
0.499999 0.208328 0
0.499999 0.166662 0
0.541666 0.208328 0
0.541666 0.166662 0
0.541666 0.208328 0
0.541666 0.166662 0
0.583333 0.208328 0
0.583333 0.166663 0
0.666666 0.0833314 0
0.666667 0.0416657 0
0.708333 0.0833316 0
0.708333 0.0416658 0
0.666667 0.0416657 0
0.666667 0 0
0.708333 0.0416658 0
0.708333 0 0
0.708333 0.0416658 0
0.708333 0 0
0.75 0.0416659 0
0.75 0 0
0.708333 0.0833316 0
0.708333 0.0416658 0
0.75 0.0833317 0
0.75 0.0416659 0
0.833333 0.0833322 0
0.791666 0.083332 0
0.833333 0.0416661 0
0.791667 0.041666 0
0.791666 0.083332 0
0.75 0.0833317 0
0.791667 0.041666 0
0.75 0.0416659 0
0.791667 0.041666 0
0.75 0.0416659 0
0.791667 0 0
0.75 0 0
0.833333 0.0416661 0
0.791667 0.041666 0
0.833333 0 0
0.791667 0 0
0.416666 0.0833311 0
0.375 0.0833312 0
0.416667 0.0416656 0
0.375 0.0416656 0
0.375 0.0833312 0
0.333333 0.0833314 0
0.375 0.0416656 0
0.333333 0.0416657 0
0.375 0.0416656 0
0.333333 0.0416657 0
0.375 0 0
0.333333 0 0
0.416667 0.0416656 0
0.375 0.0416656 0
0.416667 0 0
0.375 0 0
0.291666 0.208329 0
0.25 0.20833 0
0.291666 0.166663 0
0.25 0.166664 0
0.333333 0.208329 0
0.291666 0.208329 0
0.333333 0.166663 0
0.291666 0.166663 0
0.333333 0.249995 0
0.291666 0.249995 0
0.333333 0.208329 0
0.291666 0.208329 0
0.291666 0.249995 0
0.249999 0.249996 0
0.291666 0.208329 0
0.25 0.20833 0
0.666667 0.0416657 0
0.625 0.0416656 0
0.666667 0 0
0.625 0 0
0.666666 0.0833314 0
0.625 0.0833312 0
0.666667 0.0416657 0
0.625 0.0416656 0
0.625 0.0833312 0
0.583333 0.0833311 0
0.625 0.0416656 0
0.583333 0.0416656 0
0.625 0.0416656 0
0.583333 0.0416656 0
0.625 0 0
0.583333 0 0
0.875 0.0416662 0
0.833333 0.0416661 0
0.875 0 0
0.833333 0 0
0.916667 0.0416664 0
0.875 0.0416662 0
0.916667 0 0
0.875 0 0
0.916667 0.0833328 0
0.875 0.0833325 0
0.916667 0.0416664 0
0.875 0.0416662 0
0.875 0.0833325 0
0.833333 0.0833322 0
0.875 0.0416662 0
0.833333 0.0416661 0
0.5 0.124997 0
0.5 0.0833311 0
0.541666 0.124997 0
0.541666 0.0833311 0
0.541666 0.124997 0
0.541666 0.0833311 0
0.583333 0.124997 0
0.583333 0.0833311 0
0.541666 0.166662 0
0.541666 0.124997 0
0.583333 0.166663 0
0.583333 0.124997 0
0.499999 0.166662 0
0.5 0.124997 0
0.541666 0.166662 0
0.541666 0.124997 0
0.416666 0.208328 0
0.416666 0.166663 0
0.458333 0.208328 0
0.458333 0.166662 0
0.458333 0.208328 0
0.458333 0.166662 0
0.499999 0.208328 0
0.499999 0.166662 0
0.458333 0.249994 0
0.458333 0.208328 0
0.499999 0.249994 0
0.499999 0.208328 0
0.416666 0.249994 0
0.416666 0.208328 0
0.458333 0.249994 0
0.458333 0.208328 0
0.916666 0.208332 0
0.875 0.208331 0
0.916667 0.166666 0
0.875 0.166665 0
0.916666 0.249998 0
0.875 0.249998 0
0.916666 0.208332 0
0.875 0.208331 0
0.875 0.249998 0
0.833333 0.249997 0
0.875 0.208331 0
0.833333 0.208331 0
0.875 0.208331 0
0.833333 0.208331 0
0.875 0.166665 0
0.833333 0.166665 0
0.624999 0.291661 0
0.583333 0.29166 0
0.624999 0.249995 0
0.583333 0.249994 0
0.458332 0.333326 0
0.458332 0.29166 0
0.499999 0.333326 0
0.499999 0.29166 0
0.416666 0.333327 0
0.416666 0.29166 0
0.458332 0.333326 0
0.458332 0.29166 0
0.416666 0.29166 0
0.416666 0.249994 0
0.458332 0.29166 0
0.458333 0.249994 0
0.458332 0.29166 0
0.458333 0.249994 0
0.499999 0.29166 0
0.499999 0.249994 0
0.958333 0.125 0
0.916667 0.124999 0
0.958333 0.083333 0
0.916667 0.0833328 0
1 0.125 0
0.958333 0.125 0
1 0.0833333 0
0.958333 0.083333 0
1 0.166667 0
0.958333 0.166666 0
1 0.125 0
0.958333 0.125 0
0.958333 0.166666 0
0.916667 0.166666 0
0.958333 0.125 0
0.916667 0.124999 0
0.875 0.124999 0
0.833333 0.124998 0
0.875 0.0833325 0
0.833333 0.0833322 0
0.916667 0.124999 0
0.875 0.124999 0
0.916667 0.0833328 0
0.875 0.0833325 0
0.916667 0.166666 0
0.875 0.166665 0
0.916667 0.124999 0
0.875 0.124999 0
0.875 0.166665 0
0.833333 0.166665 0
0.875 0.124999 0
0.833333 0.124998 0
0.374999 0.249995 0
0.333333 0.249995 0
0.374999 0.208329 0
0.333333 0.208329 0
0.374999 0.208329 0
0.333333 0.208329 0
0.374999 0.166663 0
0.333333 0.166663 0
0.416666 0.208328 0
0.374999 0.208329 0
0.416666 0.166663 0
0.374999 0.166663 0
0.416666 0.249994 0
0.374999 0.249995 0
0.416666 0.208328 0
0.374999 0.208329 0
0.416666 0.0833311 0
0.416667 0.0416656 0
0.458333 0.0833311 0
0.458333 0.0416655 0
0.416667 0.0416656 0
0.416667 0 0
0.458333 0.0416655 0
0.458333 0 0
0.458333 0.0416655 0
0.458333 0 0
0.5 0.0416655 0
0.5 0 0
[...]
POINT_DATA 37920
SCALARS solution_0 double 1
LOOKUP_TABLE default
-0.0120852 -0.00738488 -0.0201985 -0.0130184 -0.0166394 -0.0120852 -0.0271325 -0.0201985 -0.00801246 -0.0056352 -0.0166394 -0.0120852 -0.0056352 -0.00311478 -0.0120852 -0.00738488 -0.0474416 -0.0335622 -0.0387197 -0.0271325 -0.0616785 -0.0474416 -0.0506883 -0.0387197 -0.0716098 -0.0552844 -0.0616785 -0.0474416 -0.0552844 -0.0393061 -0.0474416 -0.0335622 -0.0601696 -0.0444457 -0.0468767 -0.0339241 -0.0724665 -0.0543966 -0.0601696 -0.0444457 -0.0543966 -0.0369338 -0.0444457 -0.0295938 -0.0444457 -0.0295938 -0.0339241 -0.0219566 -0.159406 -0.138803 -0.16135 -0.13905 -0.16135 -0.13905 -0.158363 -0.134883 -0.0208309 -0.0166394 -0.0335622 -0.0271325 -0.0245591 -0.0208309 -0.0393061 -0.0335622 -0.0119711 -0.01017 -0.0245591 -0.0208309 -0.01017 -0.00801246 -0.0208309 -0.0166394 -0.157501 -0.142486 -0.14311 -0.13017 -0.142486 -0.12534 -0.13017 -0.114933 -0.13017 -0.114933 -0.1157 -0.10248 -0.14311 -0.13017 -0.12658 -0.1157 -0.00141733 -0.000683662 -0.0056352 -0.00311478 -0.00209556 -0.00141733 -0.00801246 -0.0056352 0 0 -0.00209556 -0.00141733 0 0 -0.00141733 -0.000683662 -0.0274913 0 -0.025703 0 -0.0513946 -0.0274913 -0.0482692 -0.025703 -0.0525425 -0.0281332 -0.0513946 -0.0274913 -0.0281332 0 -0.0274913 0 -0.0918983 -0.0724665 -0.0773631 -0.0601696 -0.0773631 -0.0601696 -0.0612997 -0.0468767 -0.113375 -0.0918983 -0.0968709 -0.0773631 -0.12534 -0.132646 -0.106619 -0.112606 -0.106619 -0.112606 -0.0870704 -0.0918706 -0.0724665 -0.0828344 -0.0543966 -0.0629601 -0.0828344 -0.0905544 -0.0629601 -0.0694933 -0.0629601 -0.0694933 -0.043332 -0.0482692 -0.0543966 -0.0629601 -0.0369338 -0.043332 0 0 -0.000683662 0.000217314 0 0 0.000217314 0 0.000217314 0 -0.000828135 0 -0.000683662 0.000217314 -0.00311478 -0.000828135 -0.0237409 -0.0339241 -0.0147216 -0.0219566 -0.0147702 -0.0237409 -0.00854659 -0.0147216 -0.0217436 -0.0336924 -0.0147702 -0.0237409 -0.0336924 -0.0468767 -0.0237409 -0.0339241 -0.0802058 -0.0619961 -0.0716098 -0.0552844 -0.0870704 -0.0673683 -0.0802058 -0.0619961 -0.0673683 -0.0481856 -0.0619961 -0.0442539 -0.0619961 -0.0442539 -0.0552844 -0.0393061 0.000397422 0.000224394 0 0 0 0.000397422 0 0 0 -9.35868e-05 0 0.000397422 -9.35868e-05 -0.00114794 0.000397422 0.000224394 -0.0449654 -0.0612997 -0.0336924 -0.0468767 -0.0296698 -0.0449654 -0.0217436 -0.0336924 -0.0278392 -0.0245591 -0.0442539 -0.0393061 -0.0870704 -0.0918706 -0.0673683 -0.0711463 -0.00311286 -0.00266816 -0.0119711 -0.01017 0 0 -0.00311286 -0.00266816 0 0 -0.00266816 -0.00209556 -0.00266816 -0.00209556 -0.01017 -0.00801246 -0.106619 -0.0870704 -0.098072 -0.0802058 -0.098072 -0.0802058 -0.0875668 -0.0716098 -0.114933 -0.098072 -0.10248 -0.0875668 -0.12534 -0.106619 -0.114933 -0.098072 -0.103785 -0.112249 -0.0828344 -0.0905544 -0.0918983 -0.103785 -0.0724665 -0.0828344 -0.113375 -0.126228 -0.0918983 -0.103785 -0.126228 -0.134883 -0.103785 -0.112249 -0.13905 -0.116906 -0.134883 -0.112249 -0.138803 -0.117724 -0.13905 -0.116906 -0.117724 -0.0964997 -0.116906 -0.0951624 -0.116906 -0.0951624 -0.112249 -0.0905544 -0.0369338 -0.0191775 -0.0295938 -0.0149702 -0.0191775 0 -0.0149702 0 -0.0149702 0 -0.0106379 0 -0.0295938 -0.0149702 -0.0219566 -0.0106379 -0.00854659 -0.0147216 -0.00328711 -0.00661062 -0.0147216 -0.0219566 -0.00661062 -0.0106379 -0.00661062 -0.0106379 0 0 -0.00328711 -0.00661062 0 0 -0.0490827 -0.0448852 -0.0261238 -0.0237351 -0.0448852 -0.0394541 -0.0237351 -0.0206718 -0.0237351 -0.0206718 0 0 -0.0261238 -0.0237351 0 0 -0.0755653 -0.0616785 -0.0623857 -0.0506883 -0.088448 -0.0755653 -0.073198 -0.0623857 -0.10248 -0.0875668 -0.088448 -0.0755653 -0.0875668 -0.0716098 -0.0755653 -0.0616785 -0.0191775 -0.0228614 0 0 -0.0369338 -0.043332 -0.0191775 -0.0228614 -0.043332 -0.0482692 -0.0228614 -0.025703 -0.0228614 -0.025703 0 0 -0.00096647 -0.00328711 0 0 0.000224394 -0.00096647 0 0 -0.00114794 -0.00393837 0.000224394 -0.00096647 -0.00393837 -0.00854659 -0.00096647 -0.00328711 -0.0749796 -0.0525425 -0.0735652 -0.0513946 -0.0735652 -0.0513946 -0.0694933 -0.0482692 -0.0951624 -0.0735652 -0.0905544 -0.0694933 -0.0964997 -0.0749796 -0.0951624 -0.0735652 -0.108694 -0.0898557 -0.114867 -0.0946445 -0.114867 -0.0946445 -0.117724 -0.0964997 -0.134494 -0.114867 -0.138803 -0.117724 -0.12658 -0.108694 -0.134494 -0.114867 -0.00728003 -0.0167942 -0.00505971 -0.011985 -0.00983227 -0.022298 -0.00728003 -0.0167942 -0.022298 -0.0386602 -0.0167942 -0.0296698 -0.0167942 -0.0296698 -0.011985 -0.0217436 -0.150084 -0.158363 -0.126228 -0.134883 -0.169716 -0.153054 -0.178237 -0.159406 -0.157501 -0.14311 -0.169716 -0.153054 -0.14311 -0.12658 -0.153054 -0.134494 -0.153054 -0.134494 -0.159406 -0.138803 -0.000600146 -0.00301184 -9.35868e-05 -0.00114794 0 -0.000600146 0 -9.35868e-05 0 -0.00112982 0 -0.000600146 -0.00112982 -0.00505971 -0.000600146 -0.00301184 -0.007725 -0.0147702 -0.00393837 -0.00854659 -0.00301184 -0.007725 -0.00114794 -0.00393837 -0.00505971 -0.011985 -0.00301184 -0.007725 -0.011985 -0.0217436 -0.007725 -0.0147702 -0.1157 -0.10248 -0.0996945 -0.088448 -0.0996945 -0.088448 -0.0825401 -0.073198 -0.108694 -0.0996945 -0.0898557 -0.0825401 -0.12658 -0.1157 -0.108694 -0.0996945 -0.0490827 -0.0261238 -0.0517211 -0.0276435 -0.0261238 0 -0.0276435 0 -0.0276435 0 -0.0281332 0 -0.0517211 -0.0276435 -0.0525425 -0.0281332 -0.0195081 -0.0130184 -0.0095761 -0.00602354 -0.0095761 -0.00602354 0 0 -0.0133682 -0.0095761 0 0 -0.0263677 -0.0195081 -0.0133682 -0.0095761 -0.0394541 -0.0331529 -0.0206718 -0.0171436 -0.0331529 -0.0263677 -0.0171436 -0.0133682 -0.0171436 -0.0133682 0 0 -0.0206718 -0.0171436 0 0 -0.073198 -0.0623857 -0.0568826 -0.0482228 -0.0623857 -0.0506883 -0.0482228 -0.0388599 -0.0482228 -0.0388599 -0.0331529 -0.0263677 -0.0568826 -0.0482228 -0.0394541 -0.0331529 -0.0825401 -0.073198 -0.0643327 -0.0568826 -0.0643327 -0.0568826 -0.0448852 -0.0394541 -0.0700985 -0.0643327 -0.0490827 -0.0448852 -0.0898557 -0.0825401 -0.0700985 -0.0643327 -0.0946445 -0.0737579 -0.0964997 -0.0749796 -0.0898557 -0.0700985 -0.0946445 -0.0737579 -0.0700985 -0.0490827 -0.0737579 -0.0517211 -0.0737579 -0.0517211 -0.0749796 -0.0525425 -0.00311478 -0.000828135 -0.00738488 -0.00300265 -0.000828135 0 -0.00300265 0 -0.00300265 0 -0.00602354 0 -0.00738488 -0.00300265 -0.0130184 -0.00602354 -0.00223682 -0.00983227 -0.00170444 -0.00728003 -0.00170444 -0.00728003 -0.00112982 -0.00505971 0 -0.00170444 0 -0.00112982 0 -0.00223682 0 -0.00170444 -0.0293281 -0.0201985 -0.0195081 -0.0130184 -0.0388599 -0.0293281 -0.0263677 -0.0195081 -0.0506883 -0.0387197 -0.0388599 -0.0293281 -0.0387197 -0.0271325 -0.0293281 -0.0201985 0.00854606 0.0534747 0.0168955 0.0611819 0.0534747 0.102709 0.0611819 0.109482 0.0168955 0.0611819 0.0233322 0.0665916 0.0611819 0.109482 0.0665916 0.1137 0.752029 0.873133 0.751491 0.873671 0.873133 1 0.873671 1 0.751491 0.873671 0.749034 0.872939 0.873671 1 0.872939 1 0.739293 0.745007 0.868549 0.871245 0.745007 0.749034 0.871245 0.872939 0.868549 0.871245 1 1 0.871245 0.872939 1 1 -0.229207 -0.222678 -0.220614 -0.21279 -0.222678 -0.214079 -0.21279 -0.203196 -0.220614 -0.21279 -0.209046 -0.200202 -0.21279 -0.203196 -0.200202 -0.189816 -0.135343 -0.10474 -0.126514 -0.0955943 -0.10474 -0.0705151 -0.0955943 -0.0613464 -0.126514 -0.0955943 -0.118216 -0.0873672 -0.0955943 -0.0613464 -0.0873672 -0.0534686 -0.0705151 -0.0327357 -0.0613464 -0.023854 -0.0327357 0.00854606 -0.023854 0.0168955 -0.0613464 -0.023854 -0.0534686 -0.0165928 -0.023854 0.0168955 -0.0165928 0.0233322 -0.0534686 -0.0165928 -0.0468851 -0.0108844 -0.0165928 0.0233322 -0.0108844 0.0279673 -0.0468851 -0.0108844 -0.0415611 -0.00665616 -0.0108844 0.0279673 -0.00665616 0.0309189 -0.153599 -0.162079 -0.125012 -0.135442 -0.162079 -0.169525 -0.135442 -0.145429 -0.125012 -0.135442 -0.0922623 -0.104196 -0.135442 -0.145429 -0.104196 -0.116405 -0.0705151 -0.0808734 -0.0327357 -0.0432178 -0.0808734 -0.0922623 -0.0432178 -0.0552942 -0.0327357 -0.0432178 0.00854606 -0.00165554 -0.0432178 -0.0552942 -0.00165554 -0.0140387 -0.135343 -0.144462 -0.10474 -0.11464 -0.144462 -0.153599 -0.11464 -0.125012 -0.10474 -0.11464 -0.0705151 -0.0808734 -0.11464 -0.125012 -0.0808734 -0.0922623 -0.0140315 -0.0206526 -0.0136888 -0.0201029 -0.0206526 -0.0279672 -0.0201029 -0.0271155 -0.0136888 -0.0201029 -0.013498 -0.0196927 -0.0201029 -0.0271155 -0.0196927 -0.0264335 -0.155852 -0.173908 -0.144542 -0.16238 -0.173908 -0.189816 -0.16238 -0.178392 -0.144542 -0.16238 -0.133152 -0.150507 -0.16238 -0.178392 -0.150507 -0.166372 -0.115004 -0.13602 -0.105267 -0.125316 -0.13602 -0.155852 -0.125316 -0.144542 -0.105267 -0.125316 -0.0958143 -0.114741 -0.125316 -0.144542 -0.114741 -0.133152 -0.185109 -0.19188 -0.162192 -0.17026 -0.19188 -0.197707 -0.17026 -0.177929 -0.162192 -0.17026 -0.135343 -0.144462 -0.17026 -0.177929 -0.144462 -0.153599 -0.218649 -0.222224 -0.203952 -0.209194 -0.222224 -0.224039 -0.209194 -0.213057 -0.203952 -0.209194 -0.185109 -0.19188 -0.209194 -0.213057 -0.19188 -0.197707 -0.011463 -0.0251635 -0.0102553 -0.0226281 -0.0251635 -0.0430869 -0.0226281 -0.0388767 -0.0102553 -0.0226281 -0.00914108 -0.0202284 -0.0226281 -0.0388767 -0.0202284 -0.034937 0 -0.0027313 0 -0.00251555 -0.0027313 -0.011463 -0.00251555 -0.0102553 0 -0.00251555 0 -0.00223032 -0.00251555 -0.0102553 -0.00223032 -0.00914108 -0.235828 -0.229232 -0.233778 -0.22568 -0.229232 -0.218649 -0.22568 -0.21367 -0.233778 -0.22568 -0.230132 -0.220805 -0.22568 -0.21367 -0.220805 -0.20769 -0.00431285 -0.00926056 -0.00419185 -0.00903634 -0.00926056 -0.0156173 -0.00903634 -0.015239 -0.00419185 -0.00903634 -0.00405419 -0.00872544 -0.00903634 -0.015239 -0.00872544 -0.0148238 0 -0.00108962 0 -0.0010282 -0.00108962 -0.00431285 -0.0010282 -0.00419185 0 -0.0010282 0 -0.0009953 -0.0010282 -0.00419185 -0.0009953 -0.00405419 -0.235828 -0.235907 -0.229232 -0.231063 -0.235907 -0.233701 -0.231063 -0.23083 -0.229232 -0.231063 -0.218649 -0.222224 -0.231063 -0.23083 -0.222224 -0.224039 -0.2381 -0.234895 -0.238673 -0.237044 -0.234895 -0.229207 -0.237044 -0.233002 -0.238673 -0.237044 -0.235828 -0.235907 -0.237044 -0.233002 -0.235907 -0.233701 -0.034937 -0.0526137 -0.0312158 -0.0472931 -0.0526137 -0.0724301 -0.0472931 -0.0654952 -0.0312158 -0.0472931 -0.0278071 -0.0423378 -0.0472931 -0.0654952 -0.0423378 -0.0589451 -0.0724301 -0.0935285 -0.0654952 -0.0850764 -0.0935285 -0.115004 -0.0850764 -0.105267 -0.0654952 -0.0850764 -0.0589451 -0.0769939 -0.0850764 -0.105267 -0.0769939 -0.0958143 -0.218649 -0.203952 -0.21367 -0.19768 -0.203952 -0.185109 -0.19768 -0.177737 -0.21367 -0.19768 -0.20769 -0.190767 -0.19768 -0.177737 -0.190767 -0.170109 -0.185109 -0.162192 -0.177737 -0.153957 -0.162192 -0.135343 -0.153957 -0.126514 -0.177737 -0.153957 -0.170109 -0.145862 -0.153957 -0.126514 -0.145862 -0.118216 0.0286309 0.0310357 0.0622132 0.0665317 0.0310357 0.032313 0.0665317 0.069624 0.0622132 0.0665317 0.099118 0.105421 0.0665317 0.069624 0.105421 0.1104 0.032313 0.0323212 0.069624 0.071336 0.0323212 0.0309189 0.071336 0.0715098 0.069624 0.071336 0.1104 0.113891 0.071336 0.0715098 0.113891 0.115726 0.0233322 0.0665916 0.0279673 0.0699836 0.0665916 0.1137 0.0699836 0.115725 0.0279673 0.0699836 0.0309189 0.0715098 0.0699836 0.115725 0.0715098 0.115726 -0.0261055 -0.0322119 -0.0267658 -0.0324577 -0.0322119 -0.0379595 -0.0324577 -0.0375378 -0.0267658 -0.0324577 -0.0282284 -0.0335007 -0.0324577 -0.0375378 -0.0335007 -0.0378489 -0.0282284 -0.0335007 -0.0307023 -0.0355291 -0.0335007 -0.0378489 -0.0355291 -0.0390564 -0.0307023 -0.0355291 -0.0344376 -0.0387512 -0.0355291 -0.0390564 -0.0387512 -0.0412403 -0.173247 -0.181601 -0.16244 -0.170374 -0.181601 -0.189791 -0.170374 -0.178269 -0.16244 -0.170374 -0.149411 -0.156722 -0.170374 -0.178269 -0.156722 -0.164115 -0.156195 -0.16477 -0.146515 -0.154485 -0.16477 -0.173247 -0.154485 -0.16244 -0.146515 -0.154485 -0.135009 -0.142179 -0.154485 -0.16244 -0.142179 -0.149411 -0.169863 -0.179079 -0.163985 -0.172973 -0.179079 -0.188023 -0.172973 -0.181777 -0.163985 -0.172973 -0.156195 -0.16477 -0.172973 -0.181777 -0.16477 -0.173247 -0.188023 -0.196633 -0.181777 -0.190352 -0.196633 -0.204831 -0.190352 -0.198639 -0.181777 -0.190352 -0.173247 -0.181601 -0.190352 -0.198639 -0.181601 -0.189791 -0.140951 -0.147805 -0.117837 -0.124043 -0.147805 -0.155001 -0.124043 -0.130808 -0.117837 -0.124043 -0.0922769 -0.0976175 -0.124043 -0.130808 -0.0976175 -0.103719 -0.12835 -0.134466 -0.107052 -0.112184 -0.134466 -0.140951 -0.112184 -0.117837 -0.107052 -0.112184 -0.0837045 -0.0876586 -0.112184 -0.117837 -0.0876586 -0.0922769 -0.164115 -0.171579 -0.147428 -0.154323 -0.171579 -0.17908 -0.154323 -0.161425 -0.147428 -0.154323 -0.12835 -0.134466 -0.154323 -0.161425 -0.134466 -0.140951 -0.17908 -0.186557 -0.161425 -0.168704 -0.186557 -0.193917 -0.168704 -0.176097 -0.161425 -0.168704 -0.140951 -0.147805 -0.168704 -0.176097 -0.147805 -0.155001 -0.189791 -0.197757 -0.178269 -0.186088 -0.197757 -0.205413 -0.186088 -0.193771 -0.178269 -0.186088 -0.164115 -0.171579 -0.186088 -0.193771 -0.171579 -0.17908 -0.204831 -0.212517 -0.198639 -0.206554 -0.212517 -0.219568 -0.206554 -0.213992 -0.198639 -0.206554 -0.189791 -0.197757 -0.206554 -0.213992 -0.197757 -0.205413 -0.219568 -0.225836 -0.213992 -0.22082 -0.225836 -0.231141 -0.22082 -0.226871 -0.213992 -0.22082 -0.205413 -0.212647 -0.22082 -0.226871 -0.212647 -0.219311 -0.205413 -0.212647 -0.193771 -0.201229 -0.212647 -0.219311 -0.201229 -0.208338 -0.193771 -0.201229 -0.17908 -0.186557 -0.201229 -0.208338 -0.186557 -0.193917 -0.209635 -0.208576 -0.216425 -0.214757 -0.208576 -0.205501 -0.214757 -0.211007 -0.216425 -0.214757 -0.22231 -0.219929 -0.214757 -0.211007 -0.219929 -0.215422 -0.22231 -0.219929 -0.227128 -0.22393 -0.219929 -0.215422 -0.22393 -0.21859 -0.227128 -0.22393 -0.230696 -0.226583 -0.22393 -0.21859 -0.226583 -0.220345 -0.219568 -0.222274 -0.225836 -0.22786 -0.222274 -0.22231 -0.22786 -0.227128 -0.225836 -0.22786 -0.231141 -0.232325 -0.22786 -0.227128 -0.232325 -0.230696 -0.204831 -0.20845 -0.212517 -0.215751 -0.20845 -0.209635 -0.215751 -0.216425 -0.212517 -0.215751 -0.219568 -0.222274 -0.215751 -0.216425 -0.222274 -0.22231 -0.188023 -0.192029 -0.196633 -0.200505 -0.192029 -0.193891 -0.200505 -0.202083 -0.196633 -0.200505 -0.204831 -0.20845 -0.200505 -0.202083 -0.20845 -0.209635 -0.214079 -0.203845 -0.203196 -0.192281 -0.203845 -0.192414 -0.192281 -0.180414 -0.203196 -0.192281 -0.189816 -0.178392 -0.192281 -0.180414 -0.178392 -0.166372 -0.2381 -0.234487 -0.234895 -0.229868 -0.234487 -0.228272 -0.229868 -0.222409 -0.234895 -0.229868 -0.229207 -0.222678 -0.229868 -0.222409 -0.222678 -0.214079 -0.228272 -0.219927 -0.222409 -0.213054 -0.219927 -0.209921 -0.213054 -0.202257 -0.222409 -0.213054 -0.214079 -0.203845 -0.213054 -0.202257 -0.203845 -0.192414 -0.135009 -0.142179 -0.121773 -0.12795 -0.142179 -0.149411 -0.12795 -0.134261 -0.121773 -0.12795 -0.10693 -0.111926 -0.12795 -0.134261 -0.111926 -0.117124 -0.149411 -0.156722 -0.134261 -0.140745 -0.156722 -0.164115 -0.140745 -0.147428 -0.134261 -0.140745 -0.117124 -0.122582 -0.140745 -0.147428 -0.122582 -0.12835 -0.117124 -0.122582 -0.0981507 -0.102395 -0.122582 -0.12835 -0.102395 -0.107052 -0.0981507 -0.102395 -0.0774895 -0.0803423 -0.102395 -0.107052 -0.0803423 -0.0837045 -0.10693 -0.111926 -0.0906119 -0.094249 -0.111926 -0.117124 -0.094249 -0.0981507 -0.0906119 -0.094249 -0.0729471 -0.0750562 -0.094249 -0.0981507 -0.0750562 -0.0774895 -0.0315043 -0.0310927 -0.00616462 -0.00390428 -0.0310927 -0.0313651 -0.00390428 -0.00240916 -0.00616462 -0.00390428 0.0210033 0.0252399 -0.00390428 -0.00240916 0.0252399 0.0286309 -0.0338927 -0.0324789 -0.0124501 -0.00905786 -0.0324789 -0.0315043 -0.00905786 -0.00616462 -0.0124501 -0.00905786 0.0105564 0.0160617 -0.00905786 -0.00616462 0.0160617 0.0210033 -0.0729471 -0.0750562 -0.0540308 -0.0544532 -0.0750562 -0.0774895 -0.0544532 -0.0552575 -0.0540308 -0.0544532 -0.0338927 -0.0324789 -0.0544532 -0.0552575 -0.0324789 -0.0315043 -0.0774895 -0.0803423 -0.0552575 -0.0565543 -0.0803423 -0.0837045 -0.0565543 -0.0584503 -0.0552575 -0.0565543 -0.0315043 -0.0310927 -0.0565543 -0.0584503 -0.0310927 -0.0313651 -0.0314731 -0.0320744 -0.0405107 -0.0412908 -0.0320744 -0.0324863 -0.0412908 -0.041818 -0.0405107 -0.0412908 -0.0500364 -0.0510161 -0.0412908 -0.041818 -0.0510161 -0.0516711 -0.0156173 -0.0159223 -0.0231028 -0.0235472 -0.0159223 -0.0161366 -0.0235472 -0.0238548 -0.0231028 -0.0235472 -0.0314731 -0.0320744 -0.0235472 -0.0238548 -0.0320744 -0.0324863 -0.0161366 -0.0162476 -0.0238548 -0.0240092 -0.0162476 -0.0162468 -0.0240092 -0.0239992 -0.0238548 -0.0240092 -0.0324863 -0.0326877 -0.0240092 -0.0239992 -0.0326877 -0.0326653 -0.118216 -0.0873672 -0.110593 -0.080138 -0.0873672 -0.0534686 -0.080138 -0.0468851 -0.110593 -0.080138 -0.103719 -0.0739253 -0.080138 -0.0468851 -0.0739253 -0.0415611 -0.00419264 -0.00896889 -0.00432375 -0.00924431 -0.00896889 -0.0150828 -0.00924431 -0.0155439 -0.00432375 -0.00924431 -0.00442063 -0.0094518 -0.00924431 -0.0155439 -0.0094518 -0.0158948 -0.00442063 -0.0094518 -0.00448363 -0.00958905 -0.0094518 -0.0158948 -0.00958905 -0.0161298 -0.00448363 -0.00958905 -0.00451264 -0.00965517 -0.00958905 -0.0161298 -0.00965517 -0.0162468 0 -0.00112114 0 -0.0011368 -0.00112114 -0.00442063 -0.0011368 -0.00448363 0 -0.0011368 0 -0.00114363 -0.0011368 -0.00448363 -0.00114363 -0.00451264 0 -0.00106315 0 -0.00109649 -0.00106315 -0.00419264 -0.00109649 -0.00432375 0 -0.00109649 0 -0.00112114 -0.00109649 -0.00432375 -0.00112114 -0.00442063 -0.186648 -0.178028 -0.198693 -0.190451 -0.178028 -0.167601 -0.190451 -0.180207 -0.198693 -0.190451 -0.209921 -0.202257 -0.190451 -0.180207 -0.202257 -0.192414 -0.142365 -0.13082 -0.154904 -0.142995 -0.13082 -0.118208 -0.142995 -0.129801 -0.154904 -0.142995 -0.167601 -0.15547 -0.142995 -0.129801 -0.15547 -0.141816 -0.167601 -0.15547 -0.180207 -0.168034 -0.15547 -0.141816 -0.168034 -0.154083 -0.180207 -0.168034 -0.192414 -0.180414 -0.168034 -0.154083 -0.180414 -0.166372 -0.111049 -0.121925 -0.126898 -0.138601 -0.121925 -0.133152 -0.138601 -0.150507 -0.126898 -0.138601 -0.141816 -0.154083 -0.138601 -0.150507 -0.154083 -0.166372 -0.0908515 -0.10066 -0.104784 -0.115582 -0.10066 -0.111049 -0.115582 -0.126898 -0.104784 -0.115582 -0.118208 -0.129801 -0.115582 -0.126898 -0.129801 -0.141816 -0.0628668 -0.0702572 -0.0767554 -0.0854128 -0.0702572 -0.0782349 -0.0854128 -0.0946735 -0.0767554 -0.0854128 -0.0908515 -0.10066 -0.0854128 -0.0946735 -0.10066 -0.111049 -0.0782349 -0.086773 -0.0946735 -0.104481 -0.086773 -0.0958143 -0.104481 -0.114741 -0.0946735 -0.104481 -0.111049 -0.121925 -0.104481 -0.114741 -0.121925 -0.133152 -0.0260071 -0.0155829 -0.0311668 -0.0232904 -0.0155829 -0.00330904 -0.0232904 -0.0138804 -0.0311668 -0.0232904 -0.035562 -0.0301978 -0.0232904 -0.0138804 -0.0301978 -0.0236638 -0.0141893 0.00130809 -0.0202851 -0.00731236 0.00130809 0.0191583 -0.00731236 0.00778152 -0.0202851 -0.00731236 -0.0260071 -0.0155829 -0.00731236 0.00778152 -0.0155829 -0.00330904 -0.0158948 -0.023468 -0.0161298 -0.0238194 -0.023468 -0.03193 -0.0238194 -0.0324121 -0.0161298 -0.0238194 -0.0162468 -0.0239992 -0.0238194 -0.0324121 -0.0239992 -0.0326653 -0.0557471 -0.0505398 -0.0521442 -0.0483866 -0.0505398 -0.0454694 -0.0483866 -0.0449455 -0.0521442 -0.0483866 -0.0479819 -0.0455272 -0.0483866 -0.0449455 -0.0455272 -0.0435578 -0.0454694 -0.0405258 -0.0449455 -0.0418432 -0.0405258 -0.035562 -0.0418432 -0.0389792 -0.0449455 -0.0418432 -0.0435578 -0.0421309 -0.0418432 -0.0389792 -0.0421309 -0.0411985 -0.0435578 -0.0421309 -0.0412101 -0.0412472 -0.0421309 -0.0411985 -0.0412472 -0.0420057 -0.0412101 -0.0412472 -0.0378489 -0.0390564 -0.0412472 -0.0420057 -0.0390564 -0.0412403 -0.0479819 -0.0455272 -0.0432449 -0.0419126 -0.0455272 -0.0435578 -0.0419126 -0.0412101 -0.0432449 -0.0419126 -0.0379595 -0.0375378 -0.0419126 -0.0412101 -0.0375378 -0.0378489 -0.228272 -0.231821 -0.219927 -0.224557 -0.231821 -0.233261 -0.224557 -0.227088 -0.219927 -0.224557 -0.209921 -0.215449 -0.224557 -0.227088 -0.215449 -0.218936 -0.2381 -0.239031 -0.234487 -0.236792 -0.