# vtk DataFile Version 3.0
#This file was generated by the deal.II library on 2020/11/19 at 14:52:20
ASCII
DATASET UNSTRUCTURED_GRID

POINTS 4428 double
0.125 0.124999 0
0.125 0.0833324 0
0.166666 0.124998 0
0.166667 0.0833322 0
0.125 0.166665 0
0.125 0.124999 0
0.166666 0.166664 0
0.166666 0.124998 0
0.0833332 0.166666 0
0.0833332 0.124999 0
0.125 0.166665 0
0.125 0.124999 0
0.0833332 0.124999 0
0.0833333 0.0833327 0
0.125 0.124999 0
0.125 0.0833324 0
0.458332 0.541659 0
0.499999 0.541659 0
0.458332 0.583326 0
0.499999 0.583326 0
0.416666 0.541659 0
0.458332 0.541659 0
0.416666 0.583326 0
0.458332 0.583326 0
0.416666 0.499992 0
0.458332 0.499992 0
0.416666 0.541659 0
0.458332 0.541659 0
0.458332 0.499992 0
0.499999 0.499992 0
0.458332 0.541659 0
0.499999 0.541659 0
0.541666 0.624993 0
0.583332 0.624993 0
0.541666 0.66666 0
0.583332 0.66666 0
0.499999 0.624993 0
0.541666 0.624993 0
0.499999 0.66666 0
0.541666 0.66666 0
0.499999 0.583326 0
0.541666 0.583326 0
0.499999 0.624993 0
0.541666 0.624993 0
0.541666 0.583326 0
0.583332 0.583326 0
0.541666 0.624993 0
0.583332 0.624993 0
0.499999 0.541659 0
0.541666 0.541659 0
0.499999 0.583326 0
0.541666 0.583326 0
0.499999 0.499992 0
0.541666 0.499992 0
0.499999 0.541659 0
0.541666 0.541659 0
0.541666 0.499992 0
0.583332 0.499992 0
0.541666 0.541659 0
0.583332 0.541659 0
0.541666 0.541659 0
0.583332 0.541659 0
0.541666 0.583326 0
0.583332 0.583326 0
0.499999 0.458326 0
0.499999 0.416659 0
0.541666 0.458326 0
0.541666 0.416659 0
0.541666 0.458326 0
0.541666 0.416659 0
0.583332 0.458326 0
0.583332 0.416659 0
0.541666 0.499992 0
0.541666 0.458326 0
0.583332 0.499992 0
0.583332 0.458326 0
0.499999 0.499992 0
0.499999 0.458326 0
0.541666 0.499992 0
0.541666 0.458326 0
0.208333 0.20833 0
0.166666 0.208331 0
0.208333 0.166664 0
0.166666 0.166664 0
0.25 0.20833 0
0.208333 0.20833 0
0.25 0.166664 0
0.208333 0.166664 0
0.249999 0.249996 0
0.208333 0.249996 0
0.25 0.20833 0
0.208333 0.20833 0
0.208333 0.249996 0
0.166666 0.249997 0
0.208333 0.20833 0
0.166666 0.208331 0
0.291666 0.874997 0
0.25 0.874998 0
0.291666 0.83333 0
0.25 0.83333 0
0.333333 0.874997 0
0.291666 0.874997 0
0.333333 0.83333 0
0.291666 0.83333 0
0.499999 0.374993 0
0.541666 0.374993 0
0.499999 0.416659 0
0.541666 0.416659 0
0.499999 0.333326 0
0.541666 0.333326 0
0.499999 0.374993 0
0.541666 0.374993 0
0.541666 0.333326 0
0.583332 0.333327 0
0.541666 0.374993 0
0.583332 0.374993 0
0.541666 0.374993 0
0.583332 0.374993 0
0.541666 0.416659 0
0.583332 0.416659 0
0.458332 0.499992 0
0.458332 0.458326 0
0.499999 0.499992 0
0.499999 0.458326 0
0.416666 0.499992 0
0.416666 0.458326 0
0.458332 0.499992 0
0.458332 0.458326 0
0.416666 0.458326 0
0.416666 0.416659 0
0.458332 0.458326 0
0.458332 0.416659 0
0.458332 0.458326 0
0.458332 0.416659 0
0.499999 0.458326 0
0.499999 0.416659 0
0.708333 0.166663 0
0.708333 0.124997 0
0.75 0.166664 0
0.75 0.124998 0
0.666666 0.166663 0
0.666666 0.124997 0
0.708333 0.166663 0
0.708333 0.124997 0
0.666666 0.124997 0
0.666666 0.0833314 0
0.708333 0.124997 0
0.708333 0.0833316 0
0.708333 0.124997 0
0.708333 0.0833316 0
0.75 0.124998 0
0.75 0.0833317 0
0.499999 0.29166 0
0.499999 0.249994 0
0.541666 0.29166 0
0.541666 0.249994 0
0.541666 0.29166 0
0.541666 0.249994 0
0.583333 0.29166 0
0.583333 0.249994 0
0.541666 0.333326 0
0.541666 0.29166 0
0.583332 0.333327 0
0.583333 0.29166 0
0.499999 0.333326 0
0.499999 0.29166 0
0.541666 0.333326 0
0.541666 0.29166 0
0.125 0.208331 0
0.125 0.166665 0
0.166666 0.208331 0
0.166666 0.166664 0
0.125 0.249998 0
0.125 0.208331 0
0.166666 0.249997 0
0.166666 0.208331 0
0.0833331 0.249998 0
0.0833331 0.208332 0
0.125 0.249998 0
0.125 0.208331 0
0.0833331 0.208332 0
0.0833332 0.166666 0
0.125 0.208331 0
0.125 0.166665 0
0.249999 0.458327 0
0.208333 0.458328 0
0.249999 0.416661 0
0.208333 0.416662 0
0.249999 0.499994 0
0.208333 0.499995 0
0.249999 0.458327 0
0.208333 0.458328 0
0.208333 0.499995 0
0.166666 0.499996 0
0.208333 0.458328 0
0.166666 0.458329 0
0.208333 0.458328 0
0.166666 0.458329 0
0.208333 0.416662 0
0.166666 0.416662 0
0.708333 0.458327 0
0.708333 0.41666 0
0.749999 0.458328 0
0.749999 0.416661 0
0.708332 0.499994 0
0.708333 0.458327 0
0.749999 0.499994 0
0.749999 0.458328 0
0.666666 0.499993 0
0.666666 0.458327 0
0.708332 0.499994 0
0.708333 0.458327 0
0.666666 0.458327 0
0.666666 0.41666 0
0.708333 0.458327 0
0.708333 0.41666 0
0.416666 0.583326 0
0.458332 0.583326 0
0.416666 0.624993 0
0.458332 0.624993 0
0.458332 0.583326 0
0.499999 0.583326 0
0.458332 0.624993 0
0.499999 0.624993 0
0.458332 0.624993 0
0.499999 0.624993 0
0.458332 0.66666 0
0.499999 0.66666 0
0.416666 0.624993 0
0.458332 0.624993 0
0.416666 0.66666 0
0.458332 0.66666 0
0.458333 0.708327 0
0.499999 0.708327 0
0.458333 0.749994 0
0.499999 0.749994 0
0.416666 0.708327 0
0.458333 0.708327 0
0.416666 0.749994 0
0.458333 0.749994 0
0.416666 0.66666 0
0.458332 0.66666 0
0.416666 0.708327 0
0.458333 0.708327 0
0.458332 0.66666 0
0.499999 0.66666 0
0.458333 0.708327 0
0.499999 0.708327 0
0.208333 0.874998 0
0.166666 0.874998 0
0.208333 0.833331 0
0.166666 0.833331 0
0.25 0.874998 0
0.208333 0.874998 0
0.25 0.83333 0
0.208333 0.833331 0
0 0.875 0
0 0.833333 0
0.0416666 0.875 0
0.0416666 0.833333 0
0.0416666 0.875 0
0.0416666 0.833333 0
0.0833332 0.874999 0
0.0833332 0.833332 0
0.458332 0.333326 0
0.499999 0.333326 0
0.458332 0.374993 0
0.499999 0.374993 0
0.458332 0.374993 0
0.499999 0.374993 0
0.458332 0.416659 0
0.499999 0.416659 0
0.416666 0.374993 0
0.458332 0.374993 0
0.416666 0.416659 0
0.458332 0.416659 0
0.416666 0.333327 0
0.458332 0.333326 0
0.416666 0.374993 0
0.458332 0.374993 0
0.125 0.45833 0
0.125 0.416663 0
0.166666 0.458329 0
0.166666 0.416662 0
0.125 0.499997 0
0.125 0.45833 0
0.166666 0.499996 0
0.166666 0.458329 0
0.083333 0.499998 0
0.083333 0.458331 0
0.125 0.499997 0
0.125 0.45833 0
0.083333 0.458331 0
0.083333 0.416664 0
0.125 0.45833 0
0.125 0.416663 0
0.375 0.874997 0
0.333333 0.874997 0
0.374999 0.83333 0
0.333333 0.83333 0
0.416666 0.874997 0
0.375 0.874997 0
0.416666 0.833329 0
0.374999 0.83333 0
0.374999 0.374993 0
0.374999 0.416659 0
0.333332 0.374993 0
0.333332 0.41666 0
0.374999 0.333327 0
0.374999 0.374993 0
0.333333 0.333327 0
0.333332 0.374993 0
0.416666 0.333327 0
0.416666 0.374993 0
0.374999 0.333327 0
0.374999 0.374993 0
0.416666 0.374993 0
0.416666 0.416659 0
0.374999 0.374993 0
0.374999 0.416659 0
0.833333 0.291663 0
0.791666 0.291663 0
0.833333 0.249997 0
0.791666 0.249996 0
0.791666 0.749997 0
0.791666 0.791664 0
0.749999 0.749996 0
0.75 0.791663 0
0.291666 0.624994 0
0.291666 0.666661 0
0.249999 0.624995 0
0.249999 0.666662 0
0.291666 0.583327 0
0.291666 0.624994 0
0.249999 0.583328 0
0.249999 0.624995 0
0.333332 0.583326 0
0.333332 0.624994 0
0.291666 0.583327 0
0.291666 0.624994 0
0.333332 0.624994 0
0.333333 0.666661 0
0.291666 0.624994 0
0.291666 0.666661 0
0.416666 0.333327 0
0.374999 0.333327 0
0.416666 0.29166 0
0.374999 0.291661 0
0.374999 0.333327 0
0.333333 0.333327 0
0.374999 0.291661 0
0.333333 0.291661 0
0.374999 0.291661 0
0.333333 0.291661 0
0.374999 0.249995 0
0.333333 0.249995 0
0.416666 0.29166 0
0.374999 0.291661 0
0.416666 0.249994 0
0.374999 0.249995 0
0.624999 0.66666 0
0.624999 0.708328 0
0.583332 0.66666 0
0.583333 0.708327 0
0.666666 0.666661 0
0.666666 0.708328 0
0.624999 0.66666 0
0.624999 0.708328 0
0.666666 0.708328 0
0.666666 0.749995 0
0.624999 0.708328 0
0.624999 0.749995 0
0.624999 0.708328 0
0.624999 0.749995 0
0.583333 0.708327 0
0.583333 0.749995 0
0.0416666 0.125 0
0.0416666 0.083333 0
0.0833332 0.124999 0
0.0833333 0.0833327 0
0.0416666 0.166666 0
0.0416666 0.125 0
0.0833332 0.166666 0
0.0833332 0.124999 0
0 0.166667 0
0 0.125 0
0.0416666 0.166666 0
0.0416666 0.125 0
0 0.125 0
0 0.0833333 0
0.0416666 0.125 0
0.0416666 0.083333 0
0.0833332 0.874999 0
0.0833332 0.833332 0
0.125 0.874999 0
0.125 0.833332 0
0.125 0.874999 0
0.125 0.833332 0
0.166666 0.874998 0
0.166666 0.833331 0
0.541667 0.0416655 0
0.541667 0 0
0.583333 0.0416656 0
0.583333 0 0
0.541666 0.0833311 0
0.541667 0.0416655 0
0.583333 0.0833311 0
0.583333 0.0416656 0
0.5 0.0833311 0
0.5 0.0416655 0
0.541666 0.0833311 0
0.541667 0.0416655 0
0.5 0.0416655 0
0.5 0 0
0.541667 0.0416655 0
0.541667 0 0
0.0416665 0.333332 0
0.0833331 0.333331 0
0.0416665 0.374999 0
0.083333 0.374998 0
0 0.333333 0
0.0416665 0.333332 0
0 0.375 0
0.0416665 0.374999 0
0.666666 0.374994 0
0.708333 0.374994 0
0.666666 0.41666 0
0.708333 0.41666 0
0.666666 0.333327 0
0.708333 0.333328 0
0.666666 0.374994 0
0.708333 0.374994 0
0.708333 0.374994 0
0.749999 0.374995 0
0.708333 0.41666 0
0.749999 0.416661 0
0.666666 0.208329 0
0.666666 0.166663 0
0.708333 0.208329 0
0.708333 0.166663 0
0.708333 0.208329 0
0.708333 0.166663 0
0.75 0.20833 0
0.75 0.166664 0
0.708333 0.249995 0
0.708333 0.208329 0
0.749999 0.249996 0
0.75 0.20833 0
0.666666 0.249995 0
0.666666 0.208329 0
0.708333 0.249995 0
0.708333 0.208329 0
0.333333 0.333327 0
0.333332 0.374993 0
0.291666 0.333328 0
0.291666 0.374994 0
0.333332 0.374993 0
0.333332 0.41666 0
0.291666 0.374994 0
0.291666 0.41666 0
0.291666 0.374994 0
0.291666 0.41666 0
0.249999 0.374994 0
0.249999 0.416661 0
0.291666 0.333328 0
0.291666 0.374994 0
0.249999 0.333328 0
0.249999 0.374994 0
0.666666 0.166663 0
0.624999 0.166663 0
0.666666 0.124997 0
0.625 0.124997 0
0.624999 0.166663 0
0.583333 0.166663 0
0.625 0.124997 0
0.583333 0.124997 0
0.625 0.124997 0
0.583333 0.124997 0
0.625 0.0833312 0
0.583333 0.0833311 0
0.666666 0.124997 0
0.625 0.124997 0
0.666666 0.0833314 0
0.625 0.0833312 0
0 0.0833333 0
0 0.0416667 0
0.0416666 0.083333 0
0.0416666 0.0416665 0
0 0.0416667 0
0 0 0
0.0416666 0.0416665 0
0.0416667 0 0
0.0416666 0.0416665 0
0.0416667 0 0
0.0833333 0.0416664 0
0.0833333 0 0
0.0416666 0.083333 0
0.0416666 0.0416665 0
0.0833333 0.0833327 0
0.0833333 0.0416664 0
0.791666 0.124998 0
0.75 0.124998 0
0.791666 0.083332 0
0.75 0.0833317 0
0.833333 0.124998 0
0.791666 0.124998 0
0.833333 0.0833322 0
0.791666 0.083332 0
0.833333 0.166665 0
[...]
POINT_DATA 4428
SCALARS solution_0 double 1
LOOKUP_TABLE default
-0.0238276 -0.0111128 -0.0409344 -0.0212284 -0.0379353 -0.0238276 -0.06169 -0.0409344 -0.0188828 -0.0110561 -0.0379353 -0.0238276 -0.0110561 -0.004614 -0.0238276 -0.0111128 -0.0242085 -0.0279431 0.0129157 0.00912782 -0.02111 -0.0242085 0.0159277 0.0129157 -0.0578422 -0.0606378 -0.02111 -0.0242085 -0.0606378 -0.0640129 -0.0242085 -0.0279431 0.0429563 0.0369044 0.0832839 0.0768039 0.0476689 0.0429563 0.0879048 0.0832839 0.00912782 0.00450561 0.0476689 0.0429563 0.00450561 -0.00105146 0.0429563 0.0369044 -0.0279431 -0.0323102 0.00912782 0.00450561 -0.0640129 -0.0679135 -0.0279431 -0.0323102 -0.0679135 -0.0722181 -0.0323102 -0.0372908 -0.0323102 -0.0372908 0.00450561 -0.00105146 -0.0999255 -0.137132 -0.103146 -0.139682 -0.103146 -0.139682 -0.106773 -0.142922 -0.0679135 -0.103146 -0.0722181 -0.106773 -0.0640129 -0.0999255 -0.0679135 -0.103146 -0.112504 -0.0800873 -0.0895025 -0.06169 -0.146484 -0.112504 -0.119954 -0.0895025 -0.162332 -0.127691 -0.146484 -0.112504 -0.127691 -0.093206 -0.112504 -0.0800873 0.159072 0.119704 0.15999 0.127855 0.194378 0.159072 0.188323 0.15999 -0.177222 -0.17958 -0.137132 -0.139682 -0.2198 -0.222849 -0.177222 -0.17958 -0.222849 -0.226848 -0.17958 -0.183051 -0.17958 -0.183051 -0.139682 -0.142922 -0.0606378 -0.0972207 -0.0640129 -0.0999255 -0.0578422 -0.0950305 -0.0606378 -0.0972207 -0.0950305 -0.133539 -0.0972207 -0.135175 -0.0972207 -0.135175 -0.0999255 -0.137132 -0.160862 -0.104093 -0.119396 -0.0716318 -0.196749 -0.135406 -0.160862 -0.104093 -0.135406 -0.08028 -0.104093 -0.0567966 -0.104093 -0.0567966 -0.0716318 -0.0345632 -0.259551 -0.285173 -0.263631 -0.290555 -0.263631 -0.290555 -0.267708 -0.292142 -0.222849 -0.263631 -0.226848 -0.267708 -0.2198 -0.259551 -0.222849 -0.263631 -0.0510628 -0.0379353 -0.0800873 -0.06169 -0.0609953 -0.0510628 -0.093206 -0.0800873 -0.0325784 -0.0265224 -0.0609953 -0.0510628 -0.0265224 -0.0188828 -0.0510628 -0.0379353 -0.0780787 -0.0667248 -0.108824 -0.0922735 -0.0457207 -0.0389438 -0.0780787 -0.0667248 -0.0389438 -0.0298083 -0.0667248 -0.0520211 -0.0667248 -0.0520211 -0.0922735 -0.0718231 -0.122668 -0.161913 -0.133597 -0.173533 -0.0878387 -0.122668 -0.0969252 -0.133597 -0.0817907 -0.11568 -0.0878387 -0.122668 -0.11568 -0.153129 -0.122668 -0.161913 0.0159277 0.0129157 0.0537158 0.0512296 0.0129157 0.00912782 0.0512296 0.0476689 0.0512296 0.0476689 0.0908868 0.0879048 0.0537158 0.0512296 0.0922679 0.0908868 0.131489 0.12962 0.171774 0.171767 0.130965 0.131489 0.168338 0.171774 0.0922679 0.0908868 0.130965 0.131489 0.0908868 0.0879048 0.131489 0.12962 0.0785534 0.0392281 0.0937283 0.0601553 0.119704 0.0785534 0.127855 0.0937283 0 0 -0.00825402 0.00105274 -0.00825402 0.00105274 -0.010307 0.00998398 -0.216982 -0.2198 -0.175464 -0.177222 -0.175464 -0.177222 -0.135175 -0.137132 -0.173572 -0.175464 -0.133539 -0.135175 -0.213138 -0.216982 -0.173572 -0.175464 -0.0350711 -0.0490868 -0.0520211 -0.0718231 -0.0188924 -0.0350711 -0.0298083 -0.0520211 -0.00804286 -0.0180645 -0.0188924 -0.0350711 -0.0180645 -0.0266717 -0.0350711 -0.0490868 0.224242 0.194378 0.211668 0.188323 0.247904 0.224242 0.229437 0.211668 -0.170284 -0.131487 -0.163865 -0.127699 -0.206583 -0.170284 -0.195497 -0.163865 -0.213138 -0.173572 -0.206583 -0.170284 -0.173572 -0.133539 -0.170284 -0.131487 -0.144922 -0.205284 -0.108408 -0.166633 0.0663045 0.0987572 0.0937914 0.129503 0.0524565 0.0835832 0.0482364 0.0753563 0.0193215 0.0524565 0.0183744 0.0482364 0.0192749 0.0546894 0.0193215 0.0524565 0.0546894 0.0890633 0.0524565 0.0835832 -0.213138 -0.206583 -0.246454 -0.234589 -0.206583 -0.195497 -0.234589 -0.217268 -0.234589 -0.217268 -0.246593 -0.223343 -0.246454 -0.234589 -0.26426 -0.246593 0.0681902 0.108951 0.0768039 0.118608 0.0572154 0.0960846 0.0681902 0.108951 0.0960846 0.136361 0.108951 0.151076 0.108951 0.151076 0.118608 0.161641 -0.00279545 -0.000906809 -0.0110561 -0.004614 -0.00521885 -0.00279545 -0.0188828 -0.0110561 0 0 -0.00521885 -0.00279545 0 0 -0.00279545 -0.000906809 -0.010307 0.00998398 0.00722723 0.0307104 0.00722723 0.0307104 0.0392281 0.0601553 -0.0695154 0 -0.062095 0 -0.130459 -0.0695154 -0.119229 -0.062095 -0.134786 -0.0719428 -0.130459 -0.0695154 -0.0719428 0 -0.0695154 0 -0.0107905 -0.03601 -0.00884824 -0.0326985 0 -0.0107905 0 -0.00884824 -0.195277 -0.204374 -0.153129 -0.161913 -0.238431 -0.24343 -0.195277 -0.204374 -0.204374 -0.212648 -0.161913 -0.173533 -0.250186 -0.196749 -0.216956 -0.160862 -0.216956 -0.160862 -0.17229 -0.119396 -0.257243 -0.216956 -0.219367 -0.17229 -0.280867 -0.250186 -0.257243 -0.216956 -0.195497 -0.163865 -0.178568 -0.152629 -0.163865 -0.127699 -0.152629 -0.120556 -0.152629 -0.120556 -0.135688 -0.108824 -0.178568 -0.152629 -0.155609 -0.135688 -0.196749 -0.223791 -0.135406 -0.161853 -0.223791 -0.241288 -0.161853 -0.181138 -0.161853 -0.181138 -0.101937 -0.119229 -0.135406 -0.161853 -0.08028 -0.101937 0 0 -0.000906809 -0.00104413 0 0 -0.00104413 0 -0.00104413 0 -0.000593035 0 -0.000906809 -0.00104413 -0.004614 -0.000593035 -0.0424289 -0.0716318 -0.0164693 -0.0345632 -0.0201373 -0.0424289 -0.00438311 -0.0164693 -0.0427254 -0.0779625 -0.0201373 -0.0424289 -0.0779625 -0.119396 -0.0424289 -0.0716318 -0.0812376 -0.144922 -0.0557129 -0.108408 -0.0318346 -0.0812376 -0.019471 -0.0557129 -0.165286 -0.132896 -0.162332 -0.127691 -0.155609 -0.127725 -0.165286 -0.132896 -0.127725 -0.0969539 -0.132896 -0.0990709 -0.132896 -0.0990709 -0.127691 -0.093206 0.0370322 0.0663045 0.0600761 0.0937914 0.00905222 0.0370322 0.027882 0.0600761 -0.000654222 0.00223541 0 0 0 -0.000654222 0 0 0 0.000956342 0 -0.000654222 0.000956342 0.00216724 -0.000654222 0.00223541 -0.166633 -0.219367 -0.12148 -0.17229 -0.12148 -0.17229 -0.0779625 -0.119396 -0.0725291 -0.12148 -0.0427254 -0.0779625 -0.108408 -0.166633 -0.0725291 -0.12148 -0.0359071 -0.0325784 -0.0661212 -0.0609953 -0.0661212 -0.0609953 -0.0990709 -0.093206 -0.0656806 -0.0661212 -0.0969539 -0.0990709 -0.03601 -0.0359071 -0.0656806 -0.0661212 -0.113431 -0.0922735 -0.0874002 -0.0718231 -0.127725 -0.113431 -0.0969539 -0.0874002 -0.155609 -0.135688 -0.127725 -0.113431 -0.135688 -0.108824 -0.113431 -0.0922735 0.173039 0.188323 0.151548 0.15999 0.151548 0.15999 0.126418 0.127855 0.134794 0.151548 0.116077 0.126418 0.150015 0.173039 0.134794 0.151548 -0.0326985 -0.0596712 -0.0266717 -0.0490868 -0.03601 -0.0656806 -0.0326985 -0.0596712 -0.0656806 -0.0969539 -0.0596712 -0.0874002 -0.0596712 -0.0874002 -0.0490868 -0.0718231 0.0753563 0.0984815 0.0649851 0.0829849 0.0984815 0.116077 0.0829849 0.0949084 0.0829849 0.0949084 0.0658971 0.0722774 0.0649851 0.0829849 0.0532793 0.0658971 -0.11568 -0.110805 -0.153129 -0.147149 -0.0817907 -0.0768188 -0.11568 -0.110805 -0.0768188 -0.0722181 -0.110805 -0.106773 -0.110805 -0.106773 -0.147149 -0.142922 -0.010881 -0.00975178 -0.0359071 -0.0325784 -0.0107905 -0.010881 -0.03601 -0.0359071 0 0 -0.0107905 -0.010881 0 0 -0.010881 -0.00975178 0.0990005 0.0937283 0.0708373 0.0601553 0.0949084 0.0990005 0.0722774 0.0708373 0.116077 0.126418 0.0949084 0.0990005 0.126418 0.127855 0.0990005 0.0937283 -0.0502672 -0.0457207 -0.0857579 -0.0780787 -0.0857579 -0.0780787 -0.120556 -0.108824 -0.0903376 -0.0857579 -0.127699 -0.120556 -0.0532348 -0.0502672 -0.0903376 -0.0857579 -0.00975178 -0.00771228 -0.0325784 -0.0265224 0 0 -0.00975178 -0.00771228 0 0 -0.00771228 -0.00521885 -0.00771228 -0.00521885 -0.0265224 -0.0188828 -0.178568 -0.155609 -0.193961 -0.165286 -0.193961 -0.165286 -0.194854 -0.162332 -0.217268 -0.193961 -0.223343 -0.194854 -0.195497 -0.178568 -0.217268 -0.193961 -0.271798 -0.283577 -0.223791 -0.241288 -0.250186 -0.271798 -0.196749 -0.223791 0.0437716 0.027882 0.0797956 0.0600761 0.0797956 0.0600761 0.117259 0.0937914 0.0960846 0.0797956 0.136361 0.117259 0.0572154 0.0437716 0.0960846 0.0797956 0.0199189 0.0287939 0.0247165 0.0402473 0.0120096 0.0143722 0.0199189 0.0287939 0.0143722 0.0155741 0.0287939 0.0360376 0.0287939 0.0360376 0.0402473 0.0532793 0.202156 0.229437 0.190007 0.211668 0.190007 0.211668 0.173039 0.188323 0.161199 0.190007 0.150015 0.173039 0.168338 0.202156 0.161199 0.190007 -0.285173 -0.283438 -0.290555 -0.287654 -0.283438 -0.249389 -0.287654 -0.249432 -0.287654 -0.249432 -0.283577 -0.241288 0 0.00712439 0 0.00806314 0.00712439 0.0199189 0.00806314 0.0247165 -0.11128 -0.0969252 -0.147531 -0.133597 -0.147531 -0.133597 -0.183903 -0.173533 -0.127231 -0.0958897 -0.11128 -0.0775439 -0.0958897 -0.0665202 -0.0775439 -0.0465597 -0.0775439 -0.0465597 -0.064064 -0.0335752 -0.11128 -0.0775439 -0.0969252 -0.064064 -0.08028 -0.0365146 -0.0567966 -0.0222267 -0.0365146 0 -0.0222267 0 -0.0222267 0 -0.00987199 0 -0.0567966 -0.0222267 -0.0345632 -0.00987199 -0.00438311 -0.0164693 0.00353098 -0.0010691 -0.0164693 -0.0345632 -0.0010691 -0.00987199 -0.0010691 -0.00987199 0 0 0.00353098 -0.0010691 0 0 -0.12291 -0.108447 -0.0627271 -0.053163 -0.108447 -0.0904329 -0.053163 -0.0421783 -0.053163 -0.0421783 0 0 -0.0627271 -0.053163 0 0 0.168338 0.171774 0.202156 0.209429 0.171774 0.171767 0.209429 0.212177 0.209429 0.212177 0.241707 0.247888 0.202156 0.209429 0.229437 0.241707 0.0201523 0.00935888 0.0572154 0.0437716 -0.015113 -0.0235976 0.0201523 0.00935888 -0.0235976 -0.0335752 0.00935888 -0.00322506 0.00935888 -0.00322506 0.0437716 0.027882 -0.179811 -0.146484 -0.150954 -0.119954 -0.210441 -0.179811 -0.180273 -0.150954 -0.223343 -0.194854 -0.210441 -0.179811 -0.194854 -0.162332 -0.179811 -0.146484 -0.0183558 0.00905222 -0.00322506 0.027882 -0.0465597 -0.0183558 -0.0335752 -0.00322506 -0.0365146 -0.0505362 0 0 -0.08028 -0.101937 -0.0365146 -0.0505362 -0.101937 -0.119229 -0.0505362 -0.062095 -0.0505362 -0.062095 0 0 -0.0555112 -0.0532348 -0.0930147 -0.0903376 -0.0930147 -0.0903376 -0.131487 -0.127699 -0.0950305 -0.0930147 -0.133539 -0.131487 -0.0578422 -0.0555112 -0.0950305 -0.0930147 -0.0428238 -0.00759873 -0.0372908 -0.00105146 -0.0768188 -0.0428238 -0.0722181 -0.0372908 -0.0817907 -0.0488488 -0.0768188 -0.0428238 -0.0488488 -0.015113 -0.0428238 -0.00759873 0.00426468 0.00353098 0 0 0.00223541 0.00426468 0 0 0.00216724 0.00138386 0.00223541 0.00426468 0.00138386 -0.00438311 0.00426468 0.00353098 -0.195333 -0.134786 -0.192333 -0.130459 -0.192333 -0.130459 -0.181138 -0.119229 -0.249432 -0.192333 -0.241288 -0.181138 -0.249389 -0.195333 -0.249432 -0.192333 -0.258018 -0.226765 -0.273608 -0.241511 -0.273608 -0.241511 -0.283438 -0.249389 -0.276847 -0.273608 -0.285173 -0.283438 -0.26426 -0.258018 -0.276847 -0.273608 -0.232212 -0.188105 -0.226848 -0.183051 -0.238431 -0.195277 -0.232212 -0.188105 -0.195277 -0.153129 -0.188105 -0.147149 -0.188105 -0.147149 -0.183051 -0.142922 -0.0578422 -0.02111 -0.0555112 -0.01864 -0.02111 0.0159277 -0.01864 0.0181033 -0.01864 0.0181033 -0.0167169 0.0192749 -0.0555112 -0.01864 -0.0532348 -0.0167169 -0.0112452 -0.0341762 -0.00500372 -0.0181588 -0.019471 -0.0557129 -0.0112452 -0.0341762 -0.0557129 -0.108408 -0.0341762 -0.0725291 -0.0341762 -0.0725291 -0.0181588 -0.0427254 -0.238431 -0.232212 -0.272105 -0.270411 -0.232212 -0.226848 -0.270411 -0.267708 0.0537158 0.0922679 0.054987 0.0918148 0.054987 0.0918148 0.0546894 0.0890633 0.0181033 0.054987 0.0192749 0.0546894 0.0159277 0.0537158 0.0181033 0.054987 -0.0488488 -0.0555719 -0.015113 -0.0235976 -0.0817907 -0.0878387 -0.0488488 -0.0555719 -0.0878387 -0.0969252 -0.0555719 -0.064064 -0.0555719 -0.064064 -0.0235976 -0.0335752 -0.216982 -0.254233 -0.2198 -0.259551 -0.213138 -0.246454 -0.216982 -0.254233 -0.246454 -0.26426 -0.254233 -0.276847 -0.254233 -0.276847 -0.259551 -0.285173 0.0482364 0.0753563 0.0425066 0.0649851 0.0425066 0.0649851 0.0360376 0.0532793 0.0169109 0.0425066 0.0155741 0.0360376 0.0183744 0.0482364 0.0169109 0.0425066 0.130965 0.168338 0.12774 0.161199 0.12774 0.161199 0.121369 0.150015 0.0918148 0.12774 0.0890633 0.121369 0.0922679 0.130965 0.0918148 0.12774 -0.015113 0.0201523 -0.00759873 0.0293344 0.0201523 0.0572154 0.0293344 0.0681902 0.0293344 0.0681902 0.0369044 0.0768039 -0.00759873 0.0293344 -0.00105146 0.0369044 0.00053004 -0.000393575 0.000956342 0.00216724 0 0.00053004 0 0.000956342 0 -0.000428075 0 0.00053004 -0.000428075 -0.00500372 0.00053004 -0.000393575 0.0879048 0.0832839 0.12962 0.125391 0.0832839 0.0768039 0.125391 0.118608 0.125391 0.118608 0.168433 0.161641 0.12962 0.125391 0.171767 0.168433 0.121369 0.150015 0.111543 0.134794 0.111543 0.134794 0.0984815 0.116077 0.0835832 0.111543 0.0753563 0.0984815 0.0890633 0.121369 0.0835832 0.111543 0.247904 0.229437 0.264975 0.241707 -0.0106235 0.0169109 -0.00680753 0.0155741 -0.0389438 -0.0106235 -0.0298083 -0.00680753 -0.0457207 -0.0132347 -0.0389438 -0.0106235 -0.0132347 0.0183744 -0.0106235 0.0169109 -0.0532348 -0.0167169 -0.0502672 -0.0150757 -0.0167169 0.0192749 -0.0150757 0.0193215 -0.0150757 0.0193215 -0.0132347 0.0183744 -0.0502672 -0.0150757 -0.0457207 -0.0132347 -0.00641781 -0.0201373 0.00138386 -0.00438311 -0.000393575 -0.00641781 0.00216724 0.00138386 -0.00500372 -0.0181588 -0.000393575 -0.00641781 -0.0181588 -0.0427254 -0.00641781 -0.0201373 -0.246593 -0.223343 -0.236829 -0.210441 -0.236829 -0.210441 -0.206013 -0.180273 -0.258018 -0.236829 -0.226765 -0.206013 -0.26426 -0.246593 -0.258018 -0.236829 -0.12291 -0.0627271 -0.132082 -0.0694164 -0.0627271 0 -0.0694164 0 -0.0694164 0 -0.0719428 0 -0.132082 -0.0694164 -0.134786 -0.0719428 0.210461 0.204195 0.248496 0.24369 0.212177 0.210461 0.247888 0.248496 0.171767 0.168433 0.212177 0.210461 0.168433 0.161641 0.210461 0.204195 -0.034988 -0.0212284 -0.0125069 -0.00609604 -0.0125069 -0.00609604 0 0 -0.0209907 -0.0125069 0 0 -0.0518993 -0.034988 -0.0209907 -0.0125069 -0.0904329 -0.0709168 -0.0421783 -0.03111 -0.0709168 -0.0518993 -0.03111 -0.0209907 -0.03111 -0.0209907 0 0 -0.0421783 -0.03111 0 0 0.193163 0.233375 0.204195 0.24369 0.151076 0.193163 0.161641 0.204195 0.136361 0.1771 0.151076 0.193163 0.1771 0.21752 0.193163 0.233375 -0.180273 -0.150954 -0.138334 -0.112859 -0.150954 -0.119954 -0.112859 -0.0867531 -0.112859 -0.0867531 -0.0709168 -0.0518993 -0.138334 -0.112859 -0.0904329 -0.0709168 -0.206013 -0.180273 -0.160955 -0.138334 -0.160955 -0.138334 -0.108447 -0.0904329 -0.178852 -0.160955 -0.12291 -0.108447 -0.226765 -0.206013 -0.178852 -0.160955 0.00223421 -0.00194225 0.0120096 0.0143722 -0.00804286 -0.0188924 0.00223421 -0.00194225 -0.0188924 -0.0298083 -0.00194225 -0.00680753 -0.00194225 -0.00680753 0.0143722 0.0155741 -0.241511 -0.190638 -0.249389 -0.195333 -0.226765 -0.178852 -0.241511 -0.190638 -0.178852 -0.12291 -0.190638 -0.132082 -0.190638 -0.132082 -0.195333 -0.134786 -0.004614 -0.000593035 -0.0111128 -0.00207889 -0.000593035 0 -0.00207889 0 -0.00207889 0 -0.00609604 0 -0.0111128 -0.00207889 -0.0212284 -0.00609604 -0.00300865 -0.019471 -0.0018443 -0.0112452 -0.0018443 -0.0112452 -0.000428075 -0.00500372 0 -0.0018443 0 -0.000428075 0 -0.00300865 0 -0.0018443 0.0268571 0.0472218 0.0256007 0.0487455 0.0247165 0.0402473 0.0268571 0.0472218 0.0402473 0.0532793 0.0472218 0.0658971 0.0472218 0.0658971 0.0487455 0.0722774 0.15579 0.129503 0.196196 0.169391 0.1771 0.15579 0.21752 0.196196 0.136361 0.117259 0.1771 0.15579 0.117259 0.0937914 0.15579 0.129503 0.0256007 0.0487455 0.020465 0.0437259 0.0487455 0.0722774 0.0437259 0.0708373 0.0437259 0.0708373 0.0307104 0.0601553 0.020465 0.0437259 0.00998398 0.0307104 0.00806314 0.0247165 0.00805678 0.0268571 0.00805678 0.0268571 0.00701866 0.0256007 0 0.00805678 0 0.00701866 0 0.00806314 0 0.00805678 -0.0622128 -0.0409344 -0.034988 -0.0212284 -0.0867531 -0.0622128 -0.0518993 -0.034988 -0.119954 -0.0895025 -0.0867531 -0.0622128 -0.0895025 -0.06169 -0.0622128 -0.0409344 0 0.00701866 0 0.00486939 0.00701866 0.0256007 0.00486939 0.020465 0.00486939 0.020465 0.00105274 0.00998398 0 0.00486939 0 0.00105274 0.201116 0.180276 0.194638 0.176022 0.180276 0.158295 0.176022 0.155862 0.194638 0.176022 0.194378 0.176725 0.176022 0.155862 0.176725 0.159072 0.158295 0.135325 0.155862 0.13497 0.135325 0.111645 0.13497 0.11307 0.155862 0.13497 0.159072 0.139388 0.13497 0.11307 0.139388 0.119704 0.0255241 0.0419161 0.0458899 0.0628853 0.0419161 0.0623668 0.0628853 0.0838791 0.0458899 0.0628853 0.0645566 0.0820785 0.0628853 0.0838791 0.0820785 0.103362 -0.000463805 0.0117236 0.0184941 0.0314232 0.0117236 0.0255241 0.0314232 0.0458899 0.0184941 0.0314232 0.0356751 0.0494247 0.0314232 0.0458899 0.0494247 0.0645566 -0.0398474 -0.031708 -0.0210055 -0.0100372 -0.031708 -0.0215499 -0.0100372 0.00272619 -0.0210055 -0.0100372 -0.000463805 0.0117236 -0.0100372 0.00272619 0.0117236 0.0255241 -0.0215499 -0.00846524 0.00272619 0.0181912 -0.00846524 0.00880991 0.0181912 0.0377093 0.00272619 0.0181912 0.0255241 0.0419161 0.0181912 0.0377093 0.0419161 0.0623668 0.437051 0.454477 0.674454 0.686726 0.454477 0.470521 0.686726 0.697893 0.674454 0.686726 1 1 0.686726 0.697893 1 1 0.27044 0.283994 0.316364 0.332775 0.283994 0.296084 0.332775 0.347742 0.316364 0.332775 0.437051 0.454477 0.332775 0.347742 0.454477 0.470521 0.296084 0.30661 0.347742 0.361285 0.30661 0.3157 0.361285 0.373412 0.347742 0.361285 0.470521 0.485173 0.361285 0.373412 0.485173 0.498444 0.470521 0.485173 0.697893 0.707961 0.485173 0.498444 0.707961 0.716948 0.697893 0.707961 1 1 0.707961 0.716948 1 1 0.111645 0.0875966 0.11307 0.0909357 0.0875966 0.0635761 0.0909357 0.0687094 0.11307 0.0909357 0.119704 0.0991286 0.0909357 0.0687094 0.0991286 0.0785534 0.0635761 0.0401877 0.0687094 0.0470447 0.0401877 0.0180322 0.0470447 0.0267619 0.0687094 0.0470447 0.0785534 0.0588907 0.0470447 0.0267619 0.0588907 0.0392281 -0.0268552 -0.0162039 -0.0371458 -0.0231615 -0.0162039 -0.00825402 -0.0231615 -0.00928049 -0.0371458 -0.0231615 -0.0379728 -0.0234039 -0.0231615 -0.00928049 -0.0234039 -0.010307 0 0 -0.0100358 -0.00566154 0 0 -0.00566154 -0.00412701 -0.0100358 -0.00566154 -0.0268552 -0.0162039 -0.00566154 -0.00412701 -0.0162039 -0.00825402 0.27044 0.255308 0.255121 0.242501 0.255308 0.238722 0.242501 0.227966 0.255121 0.242501 0.247904 0.236073 0.242501 0.227966 0.236073 0.224242 0.238722 0.220603 0.227966 0.212213 0.220603 0.201116 0.212213 0.194638 0.227966 0.212213 0.224242 0.20931 0.212213 0.194638 0.20931 0.194378 -0.220758 -0.233904 -0.216046 -0.234287 -0.233904 -0.241047 -0.234287 -0.246763 -0.216046 -0.234287 -0.205284 -0.228001 -0.234287 -0.246763 -0.228001 -0.245336 -0.205284 -0.228001 -0.185959 -0.213891 -0.228001 -0.245336 -0.213891 -0.235791 -0.185959 -0.213891 -0.166633 -0.193 -0.213891 -0.235791 -0.193 -0.219367 -0.17428 -0.200808 -0.161211 -0.191359 -0.200808 -0.220758 -0.191359 -0.216046 -0.161211 -0.191359 -0.144922 -0.175103 -0.191359 -0.216046 -0.175103 -0.205284 0.0356751 0.0494247 0.0515275 0.0662545 0.0494247 0.0645566 0.0662545 0.0821067 0.0515275 0.0662545 0.0663045 0.0825309 0.0662545 0.0821067 0.0825309 0.0987572 0.0645566 0.0820785 0.0821067 0.100094 0.0820785 0.103362 0.100094 0.121474 0.0821067 0.100094 0.0987572 0.117253 0.100094 0.121474 0.117253 0.138541 0.0987572 0.117253 0.11413 0.13376 0.117253 0.138541 0.13376 0.154498 0.11413 0.13376 0.129503 0.149447 0.13376 0.154498 0.149447 0.169391 -0.109011 -0.0981869 -0.10497 -0.0911627 -0.0981869 -0.0870633 -0.0911627 -0.0777414 -0.10497 -0.0911627 -0.0958897 -0.0812049 -0.0911627 -0.0777414 -0.0812049 -0.0665202 -0.128138 -0.119167 -0.131662 -0.118484 -0.119167 -0.109011 -0.118484 -0.10497 -0.131662 -0.118484 -0.127231 -0.11156 -0.118484 -0.10497 -0.11156 -0.0958897 -0.089442 -0.0889648 -0.114117 -0.109768 -0.0889648 -0.0872434 -0.109768 -0.104001 -0.114117 -0.109768 -0.128138 -0.119167 -0.109768 -0.104001 -0.119167 -0.109011 -0.0872434 -0.0845096 -0.104001 -0.0971881 -0.0845096 -0.0810041 -0.0971881 -0.0896742 -0.104001 -0.0971881 -0.109011 -0.0981869 -0.0971881 -0.0896742 -0.0981869 -0.0870633 0.0390734 0.115609 0.00434309 0.0593302 0.115609 0.174547 0.0593302 0.109422 0.00434309 0.0593302 -0.0160537 0.0217592 0.0593302 0.109422 0.0217592 0.0641974 -0.0160537 0.0217592 -0.0279723 -0.00363047 0.0217592 0.0641974 -0.00363047 0.0321059 -0.0279723 -0.00363047 -0.0345095 -0.0207972 -0.00363047 0.0321059 -0.020