# vtk DataFile Version 3.0
#This file was generated by the deal.II library on 2020/11/19 at 14:50:02
ASCII
DATASET UNSTRUCTURED_GRID

POINTS 9348 double
0.125 0.124999 0
0.125 0.0833324 0
0.166666 0.124998 0
0.166667 0.0833322 0
0.125 0.166665 0
0.125 0.124999 0
0.166666 0.166664 0
0.166666 0.124998 0
0.0833332 0.166666 0
0.0833332 0.124999 0
0.125 0.166665 0
0.125 0.124999 0
0.0833332 0.124999 0
0.0833333 0.0833327 0
0.125 0.124999 0
0.125 0.0833324 0
0.458332 0.541659 0
0.499999 0.541659 0
0.458332 0.583326 0
0.499999 0.583326 0
0.416666 0.541659 0
0.458332 0.541659 0
0.416666 0.583326 0
0.458332 0.583326 0
0.416666 0.499992 0
0.458332 0.499992 0
0.416666 0.541659 0
0.458332 0.541659 0
0.458332 0.499992 0
0.499999 0.499992 0
0.458332 0.541659 0
0.499999 0.541659 0
0.541666 0.624993 0
0.583332 0.624993 0
0.541666 0.66666 0
0.583332 0.66666 0
0.499999 0.624993 0
0.541666 0.624993 0
0.499999 0.66666 0
0.541666 0.66666 0
0.499999 0.583326 0
0.541666 0.583326 0
0.499999 0.624993 0
0.541666 0.624993 0
0.541666 0.583326 0
0.583332 0.583326 0
0.541666 0.624993 0
0.583332 0.624993 0
0.499999 0.541659 0
0.541666 0.541659 0
0.499999 0.583326 0
0.541666 0.583326 0
0.499999 0.499992 0
0.541666 0.499992 0
0.499999 0.541659 0
0.541666 0.541659 0
0.541666 0.499992 0
0.583332 0.499992 0
0.541666 0.541659 0
0.583332 0.541659 0
0.541666 0.541659 0
0.583332 0.541659 0
0.541666 0.583326 0
0.583332 0.583326 0
0.499999 0.458326 0
0.499999 0.416659 0
0.541666 0.458326 0
0.541666 0.416659 0
0.541666 0.458326 0
0.541666 0.416659 0
0.583332 0.458326 0
0.583332 0.416659 0
0.541666 0.499992 0
0.541666 0.458326 0
0.583332 0.499992 0
0.583332 0.458326 0
0.499999 0.499992 0
0.499999 0.458326 0
0.541666 0.499992 0
0.541666 0.458326 0
0.208333 0.20833 0
0.166666 0.208331 0
0.208333 0.166664 0
0.166666 0.166664 0
0.25 0.20833 0
0.208333 0.20833 0
0.25 0.166664 0
0.208333 0.166664 0
0.249999 0.249996 0
0.208333 0.249996 0
0.25 0.20833 0
0.208333 0.20833 0
0.208333 0.249996 0
0.166666 0.249997 0
0.208333 0.20833 0
0.166666 0.208331 0
0.499999 0.374993 0
0.541666 0.374993 0
0.499999 0.416659 0
0.541666 0.416659 0
0.499999 0.333326 0
0.541666 0.333326 0
0.499999 0.374993 0
0.541666 0.374993 0
0.541666 0.333326 0
0.583332 0.333327 0
0.541666 0.374993 0
0.583332 0.374993 0
0.541666 0.374993 0
0.583332 0.374993 0
0.541666 0.416659 0
0.583332 0.416659 0
0.458332 0.499992 0
0.458332 0.458326 0
0.499999 0.499992 0
0.499999 0.458326 0
0.416666 0.499992 0
0.416666 0.458326 0
0.458332 0.499992 0
0.458332 0.458326 0
0.416666 0.458326 0
0.416666 0.416659 0
0.458332 0.458326 0
0.458332 0.416659 0
0.458332 0.458326 0
0.458332 0.416659 0
0.499999 0.458326 0
0.499999 0.416659 0
0.708333 0.166663 0
0.708333 0.124997 0
0.75 0.166664 0
0.75 0.124998 0
0.666666 0.166663 0
0.666666 0.124997 0
0.708333 0.166663 0
0.708333 0.124997 0
0.666666 0.124997 0
0.666666 0.0833314 0
0.708333 0.124997 0
0.708333 0.0833316 0
0.708333 0.124997 0
0.708333 0.0833316 0
0.75 0.124998 0
0.75 0.0833317 0
0.499999 0.29166 0
0.499999 0.249994 0
0.541666 0.29166 0
0.541666 0.249994 0
0.499999 0.333326 0
0.499999 0.29166 0
0.541666 0.333326 0
0.541666 0.29166 0
0.125 0.208331 0
0.125 0.166665 0
0.166666 0.208331 0
0.166666 0.166664 0
0.125 0.249998 0
0.125 0.208331 0
0.166666 0.249997 0
0.166666 0.208331 0
0.0833331 0.249998 0
0.0833331 0.208332 0
0.125 0.249998 0
0.125 0.208331 0
0.0833331 0.208332 0
0.0833332 0.166666 0
0.125 0.208331 0
0.125 0.166665 0
0.249999 0.458327 0
0.208333 0.458328 0
0.249999 0.416661 0
0.208333 0.416662 0
0.249999 0.499994 0
0.208333 0.499995 0
0.249999 0.458327 0
0.208333 0.458328 0
0.208333 0.499995 0
0.166666 0.499996 0
0.208333 0.458328 0
0.166666 0.458329 0
0.208333 0.458328 0
0.166666 0.458329 0
0.208333 0.416662 0
0.166666 0.416662 0
0.708333 0.458327 0
0.708333 0.41666 0
0.749999 0.458328 0
0.749999 0.416661 0
0.708332 0.499994 0
0.708333 0.458327 0
0.749999 0.499994 0
0.749999 0.458328 0
0.666666 0.499993 0
0.666666 0.458327 0
0.708332 0.499994 0
0.708333 0.458327 0
0.666666 0.458327 0
0.666666 0.41666 0
0.708333 0.458327 0
0.708333 0.41666 0
0.416666 0.583326 0
0.458332 0.583326 0
0.416666 0.624993 0
0.458332 0.624993 0
0.458332 0.583326 0
0.499999 0.583326 0
0.458332 0.624993 0
0.499999 0.624993 0
0.458332 0.624993 0
0.499999 0.624993 0
0.458332 0.66666 0
0.499999 0.66666 0
0.416666 0.624993 0
0.458332 0.624993 0
0.416666 0.66666 0
0.458332 0.66666 0
0.458333 0.708327 0
0.499999 0.708327 0
0.458333 0.749994 0
0.499999 0.749994 0
0.416666 0.708327 0
0.458333 0.708327 0
0.416666 0.749994 0
0.458333 0.749994 0
0.416666 0.66666 0
0.458332 0.66666 0
0.416666 0.708327 0
0.458333 0.708327 0
0.458332 0.66666 0
0.499999 0.66666 0
0.458333 0.708327 0
0.499999 0.708327 0
0.458332 0.333326 0
0.499999 0.333326 0
0.458332 0.374993 0
0.499999 0.374993 0
0.458332 0.374993 0
0.499999 0.374993 0
0.458332 0.416659 0
0.499999 0.416659 0
0.416666 0.374993 0
0.458332 0.374993 0
0.416666 0.416659 0
0.458332 0.416659 0
0.416666 0.333327 0
0.458332 0.333326 0
0.416666 0.374993 0
0.458332 0.374993 0
0.125 0.45833 0
0.125 0.416663 0
0.166666 0.458329 0
0.166666 0.416662 0
0.125 0.499997 0
0.125 0.45833 0
0.166666 0.499996 0
0.166666 0.458329 0
0.083333 0.499998 0
0.083333 0.458331 0
0.125 0.499997 0
0.125 0.45833 0
0.083333 0.458331 0
0.083333 0.416664 0
0.125 0.45833 0
0.125 0.416663 0
0.374999 0.374993 0
0.374999 0.416659 0
0.333332 0.374993 0
0.333332 0.41666 0
0.374999 0.333327 0
0.374999 0.374993 0
0.333333 0.333327 0
0.333332 0.374993 0
0.416666 0.333327 0
0.416666 0.374993 0
0.374999 0.333327 0
0.374999 0.374993 0
0.416666 0.374993 0
0.416666 0.416659 0
0.374999 0.374993 0
0.374999 0.416659 0
0.791666 0.291663 0
0.749999 0.291662 0
0.791666 0.249996 0
0.749999 0.249996 0
0.833333 0.291663 0
0.791666 0.291663 0
0.833333 0.249997 0
0.791666 0.249996 0
0.291666 0.624994 0
0.291666 0.666661 0
0.249999 0.624995 0
0.249999 0.666662 0
0.291666 0.583327 0
0.291666 0.624994 0
0.249999 0.583328 0
0.249999 0.624995 0
0.333332 0.583326 0
0.333332 0.624994 0
0.291666 0.583327 0
0.291666 0.624994 0
0.333332 0.624994 0
0.333333 0.666661 0
0.291666 0.624994 0
0.291666 0.666661 0
0.416666 0.333327 0
0.374999 0.333327 0
0.416666 0.29166 0
0.374999 0.291661 0
0.374999 0.333327 0
0.333333 0.333327 0
0.374999 0.291661 0
0.333333 0.291661 0
0.374999 0.291661 0
0.333333 0.291661 0
0.374999 0.249995 0
0.333333 0.249995 0
0.416666 0.29166 0
0.374999 0.291661 0
0.416666 0.249994 0
0.374999 0.249995 0
0.624999 0.66666 0
0.624999 0.708328 0
0.583332 0.66666 0
0.583333 0.708327 0
0.666666 0.666661 0
0.666666 0.708328 0
0.624999 0.66666 0
0.624999 0.708328 0
0.666666 0.708328 0
0.666666 0.749995 0
0.624999 0.708328 0
0.624999 0.749995 0
0.624999 0.708328 0
0.624999 0.749995 0
0.583333 0.708327 0
0.583333 0.749995 0
0.0416666 0.125 0
0.0416666 0.083333 0
0.0833332 0.124999 0
0.0833333 0.0833327 0
0.0416666 0.166666 0
0.0416666 0.125 0
0.0833332 0.166666 0
0.0833332 0.124999 0
0 0.166667 0
0 0.125 0
0.0416666 0.166666 0
0.0416666 0.125 0
0 0.125 0
0 0.0833333 0
0.0416666 0.125 0
0.0416666 0.083333 0
0.541667 0.0416655 0
0.541667 0 0
0.583333 0.0416656 0
0.583333 0 0
0.541666 0.0833311 0
0.541667 0.0416655 0
0.583333 0.0833311 0
0.583333 0.0416656 0
0.5 0.0833311 0
0.5 0.0416655 0
0.541666 0.0833311 0
0.541667 0.0416655 0
0.5 0.0416655 0
0.5 0 0
0.541667 0.0416655 0
0.541667 0 0
0.666666 0.374994 0
0.708333 0.374994 0
0.666666 0.41666 0
0.708333 0.41666 0
0.666666 0.208329 0
0.666666 0.166663 0
0.708333 0.208329 0
0.708333 0.166663 0
0.708333 0.208329 0
0.708333 0.166663 0
0.75 0.20833 0
0.75 0.166664 0
0.708333 0.249995 0
0.708333 0.208329 0
0.749999 0.249996 0
0.75 0.20833 0
0.666666 0.249995 0
0.666666 0.208329 0
0.708333 0.249995 0
0.708333 0.208329 0
0.333333 0.333327 0
0.333332 0.374993 0
0.291666 0.333328 0
0.291666 0.374994 0
0.333332 0.374993 0
0.333332 0.41666 0
0.291666 0.374994 0
0.291666 0.41666 0
0.291666 0.374994 0
0.291666 0.41666 0
0.249999 0.374994 0
0.249999 0.416661 0
0.291666 0.333328 0
0.291666 0.374994 0
0.249999 0.333328 0
0.249999 0.374994 0
0.666666 0.166663 0
0.624999 0.166663 0
0.666666 0.124997 0
0.625 0.124997 0
0.624999 0.166663 0
0.583333 0.166663 0
0.625 0.124997 0
0.583333 0.124997 0
0.625 0.124997 0
0.583333 0.124997 0
0.625 0.0833312 0
0.583333 0.0833311 0
0.666666 0.124997 0
0.625 0.124997 0
0.666666 0.0833314 0
0.625 0.0833312 0
0 0.0833333 0
0 0.0416667 0
0.0416666 0.083333 0
0.0416666 0.0416665 0
0 0.0416667 0
0 0 0
0.0416666 0.0416665 0
0.0416667 0 0
0.0416666 0.0416665 0
0.0416667 0 0
0.0833333 0.0416664 0
0.0833333 0 0
0.0416666 0.083333 0
0.0416666 0.0416665 0
0.0833333 0.0833327 0
0.0833333 0.0416664 0
0.791666 0.124998 0
0.75 0.124998 0
0.791666 0.083332 0
0.75 0.0833317 0
0.833333 0.124998 0
0.791666 0.124998 0
0.833333 0.0833322 0
0.791666 0.083332 0
0.833333 0.166665 0
0.791666 0.166664 0
0.833333 0.124998 0
0.791666 0.124998 0
0.791666 0.166664 0
0.75 0.166664 0
0.791666 0.124998 0
0.75 0.124998 0
0.875 0.333331 0
0.833333 0.33333 0
0.875 0.291664 0
0.833333 0.291663 0
0.875 0.291664 0
0.833333 0.291663 0
0.875 0.249998 0
0.833333 0.249997 0
0.916666 0.291665 0
0.875 0.291664 0
0.916666 0.249998 0
0.875 0.249998 0
0.916666 0.333331 0
0.875 0.333331 0
0.916666 0.291665 0
0.875 0.291664 0
0.249999 0.291662 0
0.208333 0.291663 0
0.249999 0.249996 0
0.208333 0.249996 0
0.249999 0.333328 0
0.208333 0.333329 0
0.249999 0.291662 0
0.208333 0.291663 0
0.208333 0.333329 0
0.166666 0.33333 0
0.208333 0.291663 0
0.166666 0.291663 0
0.208333 0.291663 0
0.166666 0.291663 0
0.208333 0.249996 0
0.166666 0.249997 0
0.958333 0.0416665 0
0.916667 0.0416664 0
0.958333 0 0
0.916667 0 0
1 0.0416667 0
0.958333 0.0416665 0
1 0 0
0.958333 0 0
1 0.0833333 0
0.958333 0.083333 0
1 0.0416667 0
0.958333 0.0416665 0
0.958333 0.083333 0
0.916667 0.0833328 0
0.958333 0.0416665 0
0.916667 0.0416664 0
0.791666 0.249996 0
0.749999 0.249996 0
0.791666 0.20833 0
0.75 0.20833 0
0.791666 0.20833 0
0.75 0.20833 0
0.791666 0.166664 0
0.75 0.166664 0
0.833333 0.208331 0
0.791666 0.20833 0
[...]
POINT_DATA 9348
SCALARS solution_0 double 1
LOOKUP_TABLE default
-0.0224026 -0.0122427 -0.0369119 -0.0212866 -0.0332342 -0.0224026 -0.0530687 -0.0369119 -0.0166913 -0.0108246 -0.0332342 -0.0224026 -0.0108246 -0.00562407 -0.0224026 -0.0122427 -0.0601222 -0.0634196 -0.0138078 -0.0171114 -0.0574195 -0.0601222 -0.0118104 -0.0138078 -0.103484 -0.107025 -0.0574195 -0.0601222 -0.107025 -0.110443 -0.0601222 -0.0634196 0.0243237 0.0172952 0.0714242 0.0637657 0.0293377 0.0243237 0.0762928 0.0714242 -0.0171114 -0.0218273 0.0293377 0.0243237 -0.0218273 -0.0280377 0.0243237 0.0172952 -0.0634196 -0.0676639 -0.0171114 -0.0218273 -0.110443 -0.114432 -0.0634196 -0.0676639 -0.114432 -0.119604 -0.0676639 -0.0731476 -0.0676639 -0.0731476 -0.0218273 -0.0280377 -0.158742 -0.207178 -0.163128 -0.212831 -0.163128 -0.212831 -0.168619 -0.219071 -0.114432 -0.163128 -0.119604 -0.168619 -0.110443 -0.158742 -0.114432 -0.163128 -0.0950139 -0.0679105 -0.075572 -0.0530687 -0.123778 -0.0950139 -0.0999375 -0.075572 -0.141953 -0.110159 -0.123778 -0.0950139 -0.110159 -0.0797244 -0.0950139 -0.0679105 -0.251576 -0.258867 -0.207178 -0.212831 -0.284555 -0.29336 -0.251576 -0.258867 -0.29336 -0.298519 -0.258867 -0.265479 -0.258867 -0.265479 -0.212831 -0.219071 -0.107025 -0.154512 -0.110443 -0.158742 -0.103484 -0.14939 -0.107025 -0.154512 -0.14939 -0.193179 -0.154512 -0.201067 -0.154512 -0.201067 -0.158742 -0.207178 -0.122871 -0.078962 -0.0903055 -0.0545614 -0.153068 -0.103242 -0.122871 -0.078962 -0.103242 -0.0619008 -0.078962 -0.0441432 -0.078962 -0.0441432 -0.0545614 -0.0273791 -0.297907 -0.286705 -0.30692 -0.292906 -0.284555 -0.297907 -0.29336 -0.30692 -0.0434164 -0.0332342 -0.0679105 -0.0530687 -0.051682 -0.0434164 -0.0797244 -0.0679105 -0.0270085 -0.022348 -0.051682 -0.0434164 -0.022348 -0.0166913 -0.0434164 -0.0332342 -0.101692 -0.0820981 -0.126273 -0.101354 -0.0725375 -0.0586735 -0.101692 -0.0820981 -0.0586735 -0.043069 -0.0820981 -0.0608978 -0.0820981 -0.0608978 -0.101354 -0.0752586 -0.198649 -0.243374 -0.210519 -0.245996 -0.150046 -0.198649 -0.166642 -0.210519 -0.136521 -0.186227 -0.150046 -0.198649 -0.186227 -0.235304 -0.198649 -0.243374 -0.0118104 -0.0138078 0.033218 0.0323144 -0.0138078 -0.0171114 0.0323144 0.0293377 0.0323144 0.0293377 0.0783116 0.0762928 0.033218 0.0323144 0.0773915 0.0783116 0.123623 0.123357 0.167045 0.16938 0.119985 0.123623 0.159795 0.167045 0.0773915 0.0783116 0.119985 0.123623 0.0783116 0.0762928 0.123623 0.123357 -0.272769 -0.284555 -0.242646 -0.251576 -0.242646 -0.251576 -0.201067 -0.207178 -0.230913 -0.242646 -0.193179 -0.201067 -0.257008 -0.272769 -0.230913 -0.242646 -0.0394662 -0.0494434 -0.0608978 -0.0752586 -0.0269755 -0.0394662 -0.043069 -0.0608978 -0.0126263 -0.0199647 -0.0269755 -0.0394662 -0.0199647 -0.02592 -0.0394662 -0.0494434 -0.215356 -0.182287 -0.19544 -0.16753 -0.236854 -0.215356 -0.212282 -0.19544 -0.257008 -0.230913 -0.236854 -0.215356 -0.230913 -0.193179 -0.215356 -0.182287 -0.173054 -0.225081 -0.131835 -0.181135 -0.115581 -0.173054 -0.0835186 -0.131835 0.0255378 0.0587039 0.0215591 0.0494721 -0.0101906 0.0255378 -0.00910757 0.0215591 -0.0105478 0.029351 -0.0101906 0.0255378 0.029351 0.0670826 0.0255378 0.0587039 -0.257008 -0.236854 -0.266032 -0.242803 -0.236854 -0.212282 -0.242803 -0.215369 -0.242803 -0.215369 -0.231836 -0.204205 -0.266032 -0.242803 -0.255449 -0.231836 0.053292 0.0997347 0.0637657 0.111382 0.0398741 0.0842813 0.053292 0.0997347 0.0842813 0.130074 0.0997347 0.147069 0.0997347 0.147069 0.111382 0.159353 -0.0028485 -0.00134402 -0.0108246 -0.00562407 -0.00459867 -0.0028485 -0.0166913 -0.0108246 0 0 -0.00459867 -0.0028485 0 0 -0.0028485 -0.00134402 -0.0525832 0 -0.0470079 0 -0.101117 -0.0525832 -0.0920442 -0.0470079 -0.104956 -0.0547804 -0.101117 -0.0525832 -0.0547804 0 -0.0525832 0 -0.275697 -0.275608 -0.235304 -0.243374 -0.207416 -0.153068 -0.173526 -0.122871 -0.173526 -0.122871 -0.1337 -0.0903055 -0.224318 -0.173526 -0.181135 -0.1337 -0.257278 -0.207416 -0.224318 -0.173526 -0.212282 -0.19544 -0.183933 -0.171359 -0.19544 -0.16753 -0.171359 -0.148689 -0.171359 -0.148689 -0.144 -0.126273 -0.183933 -0.171359 -0.152967 -0.144 -0.153068 -0.177821 -0.103242 -0.124694 -0.177821 -0.195288 -0.124694 -0.141242 -0.124694 -0.141242 -0.0785051 -0.0920442 -0.103242 -0.124694 -0.0619008 -0.0785051 0 0 -0.00134402 -0.000930576 0 0 -0.000930576 0 -0.000930576 0 -0.00173236 0 -0.00134402 -0.000930576 -0.00562407 -0.00173236 -0.0328765 -0.0545614 -0.013575 -0.0273791 -0.0161723 -0.0328765 -0.00407083 -0.013575 -0.0333188 -0.0592345 -0.0161723 -0.0328765 -0.0592345 -0.0903055 -0.0328765 -0.0545614 -0.0863984 -0.148655 -0.0636413 -0.115581 -0.0636413 -0.115581 -0.0433563 -0.0835186 -0.0249687 -0.0636413 -0.0164784 -0.0433563 -0.0366807 -0.0863984 -0.0249687 -0.0636413 -0.152186 -0.119173 -0.141953 -0.110159 -0.152967 -0.120812 -0.152186 -0.119173 -0.120812 -0.0888897 -0.119173 -0.0870487 -0.119173 -0.0870487 -0.110159 -0.0797244 -0.000313252 0.00192546 0 0 0 -0.000313252 0 0 0 0.000809708 0 -0.000313252 0.000809708 0.00169537 -0.000313252 0.00192546 -0.131835 -0.181135 -0.0926109 -0.1337 -0.0926109 -0.1337 -0.0592345 -0.0903055 -0.0556678 -0.0926109 -0.0333188 -0.0592345 -0.0835186 -0.131835 -0.0556678 -0.0926109 -0.0300425 -0.0270085 -0.0569667 -0.051682 -0.0569667 -0.051682 -0.0870487 -0.0797244 -0.0583995 -0.0569667 -0.0888897 -0.0870487 -0.0309145 -0.0300425 -0.0583995 -0.0569667 -0.114692 -0.101354 -0.0848754 -0.0752586 -0.120812 -0.114692 -0.0888897 -0.0848754 -0.152967 -0.144 -0.120812 -0.114692 -0.144 -0.126273 -0.114692 -0.101354 0.156048 0.173896 0.130335 0.141189 0.130335 0.141189 0.102595 0.105952 0.112341 0.130335 0.0913668 0.102595 0.131644 0.156048 0.112341 0.130335 -0.0298652 -0.0558994 -0.02592 -0.0494434 -0.0309145 -0.0583995 -0.0298652 -0.0558994 -0.0583995 -0.0888897 -0.0558994 -0.0848754 -0.0558994 -0.0848754 -0.0494434 -0.0752586 0.0494721 0.0732115 0.0404655 0.058333 0.0732115 0.0913668 0.058333 0.0702657 0.058333 0.0702657 0.0441456 0.0502053 0.0404655 0.058333 0.032139 0.0441456 -0.186227 -0.176096 -0.235304 -0.22664 -0.136521 -0.126655 -0.186227 -0.176096 -0.126655 -0.119604 -0.176096 -0.168619 -0.176096 -0.168619 -0.22664 -0.219071 -0.00864967 -0.00778999 -0.0300425 -0.0270085 -0.00850172 -0.00864967 -0.0309145 -0.0300425 0 0 -0.00850172 -0.00864967 0 0 -0.00864967 -0.00778999 0.074724 0.0704849 0.0487159 0.0378468 0.0702657 0.074724 0.0502053 0.0487159 0.0913668 0.102595 0.0702657 0.074724 0.102595 0.105952 0.074724 0.0704849 -0.0839633 -0.0725375 -0.118611 -0.101692 -0.118611 -0.101692 -0.148689 -0.126273 -0.132171 -0.118611 -0.16753 -0.148689 -0.092704 -0.0839633 -0.132171 -0.118611 -0.00778999 -0.00633435 -0.0270085 -0.022348 0 0 -0.00778999 -0.00633435 0 0 -0.00633435 -0.00459867 -0.00633435 -0.00459867 -0.022348 -0.0166913 -0.183933 -0.152967 -0.184729 -0.152186 -0.184729 -0.152186 -0.173782 -0.141953 -0.215369 -0.184729 -0.204205 -0.173782 -0.212282 -0.183933 -0.215369 -0.184729 -0.232698 -0.248532 -0.177821 -0.195288 -0.207416 -0.232698 -0.153068 -0.177821 -0.257278 -0.278982 -0.207416 -0.232698 -0.278982 -0.290336 -0.232698 -0.248532 0.0231553 0.00259984 0.0649852 0.0414572 0.0649852 0.0414572 0.10846 0.0822695 0.0842813 0.0649852 0.130074 0.10846 0.0398741 0.0231553 0.0842813 0.0649852 0.00302345 0.000803244 0.0100012 0.0135979 0.000803244 -0.00312627 0.0135979 0.0159145 0.0135979 0.0159145 0.0241246 0.032139 0.195284 0.22525 0.178096 0.202325 0.178096 0.202325 0.156048 0.173896 0.14781 0.178096 0.131644 0.156048 0.159795 0.195284 0.14781 0.178096 -0.292906 -0.25502 -0.290336 -0.248532 -0.286705 -0.253119 -0.292906 -0.25502 -0.253119 -0.206281 -0.25502 -0.204753 -0.25502 -0.204753 -0.248532 -0.195288 -0.141662 -0.100914 -0.12121 -0.0776598 -0.18135 -0.141662 -0.166642 -0.12121 -0.0619008 -0.0284889 -0.0441432 -0.0180379 -0.0284889 0 -0.0180379 0 -0.0180379 0 -0.00872779 0 -0.0441432 -0.0180379 -0.0273791 -0.00872779 -0.00407083 -0.013575 0.00225713 -0.00174466 -0.013575 -0.0273791 -0.00174466 -0.00872779 -0.00174466 -0.00872779 0 0 0.00225713 -0.00174466 0 0 -0.097065 -0.0867753 -0.0494761 -0.0432155 -0.0867753 -0.0738551 -0.0432155 -0.0357138 -0.0432155 -0.0357138 0 0 -0.0494761 -0.0432155 0 0 0.159795 0.167045 0.195284 0.206908 0.167045 0.16938 0.206908 0.212663 0.206908 0.212663 0.241939 0.25208 0.195284 0.206908 0.22525 0.241939 -0.00331257 -0.0178885 0.0398741 0.0231553 -0.0460317 -0.0593255 -0.00331257 -0.0178885 -0.0593255 -0.0776598 -0.0178885 -0.0365433 -0.0178885 -0.0365433 0.0231553 0.00259984 -0.152898 -0.123778 -0.124936 -0.0999375 -0.180873 -0.152898 -0.149039 -0.124936 -0.204205 -0.173782 -0.180873 -0.152898 -0.173782 -0.141953 -0.152898 -0.123778 -0.100914 -0.0615896 -0.0776598 -0.0365433 -0.0284889 -0.0386173 0 0 -0.0619008 -0.0785051 -0.0284889 -0.0386173 -0.0785051 -0.0920442 -0.0386173 -0.0470079 -0.0386173 -0.0470079 0 0 -0.0989945 -0.092704 -0.142261 -0.132171 -0.142261 -0.132171 -0.182287 -0.16753 -0.14939 -0.142261 -0.193179 -0.182287 -0.103484 -0.0989945 -0.14939 -0.142261 -0.0802888 -0.0359378 -0.0731476 -0.0280377 -0.126655 -0.0802888 -0.119604 -0.0731476 -0.136521 -0.0898644 -0.126655 -0.0802888 -0.0898644 -0.0460317 -0.0802888 -0.0359378 0.0032658 0.00225713 0 0 0.00192546 0.0032658 0 0 0.00169537 0.000763506 0.00192546 0.0032658 0.000763506 -0.00407083 0.0032658 0.00225713 -0.15531 -0.104956 -0.151615 -0.101117 -0.151615 -0.101117 -0.141242 -0.0920442 -0.204753 -0.151615 -0.195288 -0.141242 -0.206281 -0.15531 -0.204753 -0.151615 -0.227523 -0.188237 -0.243554 -0.200495 -0.243554 -0.200495 -0.253119 -0.206281 -0.274044 -0.243554 -0.286705 -0.253119 -0.255449 -0.227523 -0.274044 -0.243554 -0.301234 -0.271621 -0.298519 -0.265479 -0.275697 -0.235304 -0.271621 -0.22664 -0.271621 -0.22664 -0.265479 -0.219071 -0.103484 -0.0574195 -0.0989945 -0.0548012 -0.0574195 -0.0118104 -0.0548012 -0.0108744 -0.0548012 -0.0108744 -0.051614 -0.0105478 -0.0989945 -0.0548012 -0.092704 -0.051614 -0.0097181 -0.0273704 -0.00446754 -0.0149183 -0.0164784 -0.0433563 -0.0097181 -0.0273704 -0.0433563 -0.0835186 -0.0273704 -0.0556678 -0.0273704 -0.0556678 -0.0149183 -0.0333188 0.033218 0.0773915 0.0321233 0.0735483 0.0321233 0.0735483 0.029351 0.0670826 -0.0108744 0.0321233 -0.0105478 0.029351 -0.0118104 0.033218 -0.0108744 0.0321233 -0.0898644 -0.103169 -0.0460317 -0.0593255 -0.136521 -0.150046 -0.0898644 -0.103169 -0.150046 -0.166642 -0.103169 -0.12121 -0.103169 -0.12121 -0.0593255 -0.0776598 -0.272769 -0.284523 -0.284555 -0.297907 -0.257008 -0.266032 -0.272769 -0.284523 -0.266032 -0.255449 -0.284523 -0.274044 -0.284523 -0.274044 -0.297907 -0.286705 0.0215591 0.0494721 0.0182381 0.0404655 0.0182381 0.0404655 0.0159145 0.032139 -0.00675625 0.0182381 -0.00312627 0.0159145 -0.00910757 0.0215591 -0.00675625 0.0182381 0.119985 0.159795 0.112505 0.14781 0.112505 0.14781 0.101576 0.131644 0.0735483 0.112505 0.0670826 0.101576 0.0773915 0.119985 0.0735483 0.112505 -0.0460317 -0.00331257 -0.0359378 0.00817583 -0.00331257 0.0398741 0.00817583 0.053292 0.00817583 0.053292 0.0172952 0.0637657 -0.0359378 0.00817583 -0.0280377 0.0172952 -0.291784 -0.257278 -0.264949 -0.224318 -0.264949 -0.224318 -0.225081 -0.181135 0.000377107 -0.000558916 0.000809708 0.00169537 0 0.000377107 0 0.000809708 0 -0.000493882 0 0.000377107 -0.000493882 -0.00446754 0.000377107 -0.000558916 0.0762928 0.0714242 0.123357 0.119258 0.0714242 0.0637657 0.119258 0.111382 0.119258 0.111382 0.166801 0.159353 0.123357 0.119258 0.16938 0.166801 0.101576 0.131644 0.0880573 0.112341 0.0880573 0.112341 0.0732115 0.0913668 0.0587039 0.0880573 0.0494721 0.0732115 0.0670826 0.101576 0.0587039 0.0880573 -0.0329581 -0.00675625 -0.0232837 -0.00312627 -0.0586735 -0.0329581 -0.043069 -0.0232837 -0.0725375 -0.0410274 -0.0586735 -0.0329581 -0.0410274 -0.00910757 -0.0329581 -0.00675625 -0.092704 -0.051614 -0.0839633 -0.0471891 -0.051614 -0.0105478 -0.0471891 -0.0101906 -0.0471891 -0.0101906 -0.0410274 -0.00910757 -0.0839633 -0.0471891 -0.0725375 -0.0410274 -0.00553581 -0.0161723 0.000763506 -0.00407083 -0.000558916 -0.00553581 0.00169537 0.000763506 -0.00446754 -0.0149183 -0.000558916 -0.00553581 -0.0149183 -0.0333188 -0.00553581 -0.0161723 -0.231836 -0.204205 -0.206209 -0.180873 -0.206209 -0.180873 -0.170642 -0.149039 -0.227523 -0.206209 -0.188237 -0.170642 -0.255449 -0.231836 -0.227523 -0.206209 -0.097065 -0.0494761 -0.103446 -0.0535902 -0.0494761 0 -0.0535902 0 -0.0535902 0 -0.0547804 0 -0.103446 -0.0535902 -0.104956 -0.0547804 0.212491 0.206462 0.255663 0.252865 0.212663 0.212491 0.25208 0.255663 0.16938 0.166801 0.212663 0.212491 0.166801 0.159353 0.212491 0.206462 -0.00467834 -0.0249687 -0.00330336 -0.0164784 0 -0.00467834 0 -0.00330336 -0.0325382 -0.0212866 -0.0136147 -0.00813315 -0.0136147 -0.00813315 0 0 -0.0202986 -0.0136147 0 0 -0.0455771 -0.0325382 -0.0202986 -0.0136147 -0.0738551 -0.059693 -0.0357138 -0.0278371 -0.059693 -0.0455771 -0.0278371 -0.0202986 -0.0278371 -0.0202986 0 0 -0.0357138 -0.0278371 0 0 0.194723 0.243978 0.206462 0.252865 0.147069 0.194723 0.159353 0.206462 0.130074 0.177457 0.147069 0.194723 0.177457 0.229377 0.194723 0.243978 -0.149039 -0.124936 -0.112392 -0.09293 -0.124936 -0.0999375 -0.09293 -0.0729962 -0.09293 -0.0729962 -0.059693 -0.0455771 -0.112392 -0.09293 -0.0738551 -0.059693 -0.170642 -0.149039 -0.1298 -0.112392 -0.1298 -0.112392 -0.0867753 -0.0738551 -0.143596 -0.1298 -0.097065 -0.0867753 -0.188237 -0.170642 -0.143596 -0.1298 -0.0046479 -0.0131181 0.00302345 0.000803244 -0.0126263 -0.0269755 -0.0046479 -0.0131181 -0.0269755 -0.043069 -0.0131181 -0.0232837 -0.0131181 -0.0232837 0.000803244 -0.00312627 -0.200495 -0.152434 -0.206281 -0.15531 -0.188237 -0.143596 -0.200495 -0.152434 -0.143596 -0.097065 -0.152434 -0.103446 -0.152434 -0.103446 -0.15531 -0.104956 -0.00562407 -0.00173236 -0.0122427 -0.00410678 -0.00173236 0 -0.00410678 0 -0.00410678 0 -0.00813315 0 -0.0122427 -0.00410678 -0.0212866 -0.00813315 -0.00330336 -0.0164784 -0.00166618 -0.0097181 -0.00166618 -0.0097181 -0.000493882 -0.00446754 0 -0.00166618 0 -0.000493882 0 -0.00330336 0 -0.00166618 0.0174019 0.0304109 0.0160559 0.0318946 0.0149755 0.0241246 0.0174019 0.0304109 0.0241246 0.032139 0.0304109 0.0441456 0.0304109 0.0441456 0.0318946 0.0502053 0.177457 0.155118 0.229377 0.208921 0.130074 0.10846 0.177457 0.155118 0.10846 0.0822695 0.155118 0.12784 0.0160559 0.0318946 0.0108323 0.0267385 0.0318946 0.0502053 0.0267385 0.0487159 0.0267385 0.0487159 0.0121008 0.0378468 0.0108323 0.0267385 -0.00236651 0.0121008 0.00505939 0.0174019 0.00443291 0.0160559 0 0.00505939 0 0.00443291 -0.0539819 -0.0369119 -0.0325382 -0.0212866 -0.0729962 -0.0539819 -0.0455771 -0.0325382 -0.0999375 -0.075572 -0.0729962 -0.0539819 -0.075572 -0.0530687 -0.0539819 -0.0369119 0 0.00443291 0 0.00192031 0.00443291 0.0160559 0.00192031 0.0108323 0.146444 0.125004 0.14388 0.124639 0.125004 0.10306 0.124639 0.104828 0.14388 0.124639 0.141189 0.123571 0.124639 0.104828 0.123571 0.105952 0.186746 0.167088 0.180148 0.162598 0.167088 0.146444 0.162598 0.14388 0.180148 0.162598 0.173896 0.157542 0.162598 0.14388 0.157542 0.141189 0.00786468 0.0315731 0.0337872 0.0587442 0.0315731 0.0602304 0.0587442 0.0887014 0.0337872 0.0587442 0.0567616 0.0824381 0.0587442 0.0887014 0.0824381 0.11318 -0.0297862 -0.012299 -0.00707787 0.0122096 -0.012299 0.00786468 0.0122096 0.0337872 -0.00707787 0.0122096 0.0144738 0.0344969 0.0122096 0.0337872 0.0344969 0.0567616 -0.0437082 -0.0282555 -0.0195033 0.00132718 -0.0282555 -0.00847242 0.00132718 0.0269691 -0.0195033 0.00132718 0.00786468 0.0315731 0.00132718 0.0269691 0.0315731 0.0602304 0.0590947 0.0380562 0.0654502 0.0466419 0.0380562 0.0184279 0.0466419 0.029302 0.0654502 0.0466419 0.0704849 0.0541658 0.0466419 0.029302 0.0541658 0.0378468 0.10306 0.0809593 0.104828 0.0850084 0.0809593 0.0590947 0.0850084 0.0654502 0.104828 0.0850084 0.105952 0.0882183 0.0850084 0.0654502 0.0882183 0.0704849 -0.041717 -0.026476 -0.0570695 -0.038964 -0.026476 -0.0153485 -0.038964 -0.0234341 -0.0570695 -0.038964 -0.059268 -0.0430555 -0.038964 -0.0234341 -0.0430555 -0.0259436 0 0 -0.00490816 -0.0026245 0 0 -0.0026245 -0.00118995 -0.00490816 -0.0026245 -0.0153485 -0.00822377 -0.0026245 -0.00118995 -0.00822377 -0.00342939 -0.0153485 -0.00822377 -0.0234341 -0.0122187 -0.00822377 -0.00342939 -0.0122187 -0.00450367 -0.0234341 -0.0122187 -0.0259436 -0.0119129 -0.0122187 -0.00450367 -0.0119129 -0.00236651 0.222302 0.205175 0.211894 0.196815 0.205175 0.186746 0.196815 0.180148 0.211894 0.196815 0.202325 0.18811 0.196815 0.180148 0.18811 0.173896 0.252043 0.237917 0.237946 0.225844 0.237917 0.222302 0.225844 0.211894 0.237946 0.225844 0.22525 0.213787 0.225844 0.211894 0.213787 0.202325 0.0144738 0.0344969 0.0340204 0.0545456 0.0344969 0.0567616 0.0545456 0.0772311 0.0340204 0.0545456 0.0516875 0.0726995 0.0545456 0.0772311 0.0726995 0.0956663 0.0567616 0.0824381 0.0772311 0.103267 0.0824381 0.11318 0.103267 0.134253 0.0772311 0.103267 0.0956663 0.121834 0.103267 0.134253 0.121834 0.152712 0.0956663 0.121834 0.112442 0.13862 0.121834 0.152712 0.13862 0.169137 0.112442 0.13862 0.12784 0.154009 0.13862 0.169137 0.154009 0.183933 0.0516875 0.0726995 0.0677188 0.0892942 0.0726995 0.0956663 0.0892942 0.112442 0.0677188 0.0892942 0.0822695 0.105055 0.0892942 0.112442 0.105055 0.12784 -0.0259436 -0.0119129 -0.0224043 -0.0077491 -0.0119129 -0.00236651 -0.0077491 0.00486713 -0.0224043 -0.0077491 -0.0129432 0.00137063 -0.0077491 0.00486713 0.00137063 0.0121008 -0.0129432 0.00137063 0.00113422 0.0138118 0.00137063 0.0121008 0.0138118 0.0249738 0.00113422 0.0138118 0.0184279 0.029302 0.0138118 0.0249738 0.029302 0.0378468 -0.29712 -0.291897 -0.289316 -0.287569 -0.291897 -0.283573 -0.287569 -0.282649 -0.289316 -0.287569 -0.275697 -0.275652 -0.287569 -0.282649 -0.275652 -0.275608 -0.283573 -0.271345 -0.282649 -0.274401 -0.271345 -0.255028 -0.274401 -0.261822 -0.282649 -0.274401 -0.275608 -0.270746 -0.274401 -0.261822 -0.270746 -0.26235 -0.275608 -0.270746 -0.259491 -0.260615 -0.270746 -0.26235 -0.260615 -0.256655 -0.259491 -0.260615 -0.243374 -0.244685 -0.260615 -0.256655 -0.244685 -0.245996 -0.109983 -0.098641 -0.103102 -0.0882396 -0.098641 -0.0865432 -0.0882396 -0.0730094 -0.103102 -0.0882396 -0.090532 -0.0734303 -0.0882396 -0.0730094 -0.0734303 -0.0563177 -0.130039 -0.120357 -0.131306 -0.117351 -0.120357 -0.109983 -0.117351 -0.103102 -0.131306 -0.117351 -0.124455 -0.107597 -0.117351 -0.103102 -0.107597 -0.090532 0.237957 0.252572 0.19045 0.206136 0.252572 0.264887 0.206136 0.219853 0.19045 0.206136 0.152712 0.169137 0.206136 0.219853 0.169137 0.183933 0.199305 0.220469 0.151207 0.17236 0.220469 0.237957 0.17236 0.19045 0.151207 0.17236 0.11318 0.134253 0.17236 0.19045 0.134253 0.152712 0.0130837 0.0320017 0.027978 0.047504 0.0320017 0.0516875 0.047504 0.0677188 0.027978 0.047504 0.0414572 0.0618633 0.047504 0.0677188 0.0618633 0.0822695 -0.0239004 -0.00543819 -0.0099107 0.00902736 -0.00543819 0.0130837 0.00902736 0.027978 -0.0099107 0.00902736 0.00259984 0.0220285 0.00902736 0.027978 0.0220285 0.0414572 -0.0563177 -0.0391854 -0.0395366 -0.0215393 -0.0391854 -0.0218753 -0.0215393 -0.0035289 -0.0395366 -0.0215393 -0.0239004 -0.00543819 -0.0215393 -0.0035289 -0.00543819 0.0130837 -0.0218753 -0.00412877 -0.0035289 0.0148548 -0.00412877 0.0144738 0.0148548 0.0340204 -0.0035289 0.0148548 0.0130837 0.0320017 0.0148548 0.0340204 0.0320017 0.0516875 -0.0601421 -0.0456001 -0.0414122 -0.024748 -0.0456001 -0.0297862 -0.024748 -0.00707787 -0.0414122 -0.024748 -0.0218753 -0.00412877 -0.024748 -0.00707787 -0.00412877 0.0144738 -0.0865432 -0.0737304 -0.0730094 -0.0574276 -0.0737304 -0.0601421 -0.0574276 -0.0414122 -0.0730094 -0.0574276 -0.0563177 -0.0391854 -0.0574276 -0.0414122 -0.0391854 -0.0218753 -0.230683 -0.234112 -0.249245 -0.248211 -0.234112 -0.232188 -0.248211 -0.241568 -0.249245 -0.248211 -0.26235 -0.256655 -0.248211 -0.241568 -0.256655 -0.245996 -0.208838 -0.222082 -0.234063 -0.244473 -0.222082 -0.230683 -0.244473 -0.249245 -0.234063 -0.244473 -0.255028 -0.261822 -0.244473 -0.249245