# vtk DataFile Version 3.0
#This file was generated by the deal.II library on 2020/12/25 at 19:57:07
ASCII
DATASET UNSTRUCTURED_GRID

POINTS 18804 double
0.125 0.124999 0
0.125 0.0833324 0
0.166666 0.124998 0
0.166667 0.0833322 0
0.125 0.166665 0
0.125 0.124999 0
0.166666 0.166664 0
0.166666 0.124998 0
0.0833332 0.166666 0
0.0833332 0.124999 0
0.125 0.166665 0
0.125 0.124999 0
0.0833332 0.124999 0
0.0833333 0.0833327 0
0.125 0.124999 0
0.125 0.0833324 0
0.458332 0.541659 0
0.499999 0.541659 0
0.458332 0.583326 0
0.499999 0.583326 0
0.416666 0.541659 0
0.458332 0.541659 0
0.416666 0.583326 0
0.458332 0.583326 0
0.416666 0.499992 0
0.458332 0.499992 0
0.416666 0.541659 0
0.458332 0.541659 0
0.458332 0.499992 0
0.499999 0.499992 0
0.458332 0.541659 0
0.499999 0.541659 0
0.541666 0.624993 0
0.583332 0.624993 0
0.541666 0.66666 0
0.583332 0.66666 0
0.499999 0.624993 0
0.541666 0.624993 0
0.499999 0.66666 0
0.541666 0.66666 0
0.499999 0.583326 0
0.541666 0.583326 0
0.499999 0.624993 0
0.541666 0.624993 0
0.541666 0.583326 0
0.583332 0.583326 0
0.541666 0.624993 0
0.583332 0.624993 0
0.499999 0.541659 0
0.541666 0.541659 0
0.499999 0.583326 0
0.541666 0.583326 0
0.499999 0.499992 0
0.541666 0.499992 0
0.499999 0.541659 0
0.541666 0.541659 0
0.541666 0.499992 0
0.583332 0.499992 0
0.541666 0.541659 0
0.583332 0.541659 0
0.541666 0.541659 0
0.583332 0.541659 0
0.541666 0.583326 0
0.583332 0.583326 0
0.499999 0.458326 0
0.499999 0.416659 0
0.541666 0.458326 0
0.541666 0.416659 0
0.541666 0.458326 0
0.541666 0.416659 0
0.583332 0.458326 0
0.583332 0.416659 0
0.541666 0.499992 0
0.541666 0.458326 0
0.583332 0.499992 0
0.583332 0.458326 0
0.499999 0.499992 0
0.499999 0.458326 0
0.541666 0.499992 0
0.541666 0.458326 0
0.208333 0.20833 0
0.166666 0.208331 0
0.208333 0.166664 0
0.166666 0.166664 0
0.25 0.20833 0
0.208333 0.20833 0
0.25 0.166664 0
0.208333 0.166664 0
0.208333 0.249996 0
0.166666 0.249997 0
0.208333 0.20833 0
0.166666 0.208331 0
0.291666 0.874997 0
0.25 0.874998 0
0.291666 0.83333 0
0.25 0.83333 0
0.333333 0.874997 0
0.291666 0.874997 0
0.333333 0.83333 0
0.291666 0.83333 0
0.499999 0.374993 0
0.541666 0.374993 0
0.499999 0.416659 0
0.541666 0.416659 0
0.499999 0.333326 0
0.541666 0.333326 0
0.499999 0.374993 0
0.541666 0.374993 0
0.541666 0.333326 0
0.583332 0.333327 0
0.541666 0.374993 0
0.583332 0.374993 0
0.541666 0.374993 0
0.583332 0.374993 0
0.541666 0.416659 0
0.583332 0.416659 0
0.458332 0.499992 0
0.458332 0.458326 0
0.499999 0.499992 0
0.499999 0.458326 0
0.416666 0.499992 0
0.416666 0.458326 0
0.458332 0.499992 0
0.458332 0.458326 0
0.416666 0.458326 0
0.416666 0.416659 0
0.458332 0.458326 0
0.458332 0.416659 0
0.458332 0.458326 0
0.458332 0.416659 0
0.499999 0.458326 0
0.499999 0.416659 0
0.499999 0.29166 0
0.499999 0.249994 0
0.541666 0.29166 0
0.541666 0.249994 0
0.541666 0.29166 0
0.541666 0.249994 0
0.583333 0.29166 0
0.583333 0.249994 0
0.541666 0.333326 0
0.541666 0.29166 0
0.583332 0.333327 0
0.583333 0.29166 0
0.499999 0.333326 0
0.499999 0.29166 0
0.541666 0.333326 0
0.541666 0.29166 0
0.125 0.208331 0
0.125 0.166665 0
0.166666 0.208331 0
0.166666 0.166664 0
0.125 0.249998 0
0.125 0.208331 0
0.166666 0.249997 0
0.166666 0.208331 0
0.0833331 0.249998 0
0.0833331 0.208332 0
0.125 0.249998 0
0.125 0.208331 0
0.0833331 0.208332 0
0.0833332 0.166666 0
0.125 0.208331 0
0.125 0.166665 0
0.249999 0.458327 0
0.208333 0.458328 0
0.249999 0.416661 0
0.208333 0.416662 0
0.249999 0.499994 0
0.208333 0.499995 0
0.249999 0.458327 0
0.208333 0.458328 0
0.708333 0.458327 0
0.708333 0.41666 0
0.749999 0.458328 0
0.749999 0.416661 0
0.708332 0.499994 0
0.708333 0.458327 0
0.749999 0.499994 0
0.749999 0.458328 0
0.666666 0.499993 0
0.666666 0.458327 0
0.708332 0.499994 0
0.708333 0.458327 0
0.666666 0.458327 0
0.666666 0.41666 0
0.708333 0.458327 0
0.708333 0.41666 0
0.416666 0.583326 0
0.458332 0.583326 0
0.416666 0.624993 0
0.458332 0.624993 0
0.458332 0.583326 0
0.499999 0.583326 0
0.458332 0.624993 0
0.499999 0.624993 0
0.458332 0.624993 0
0.499999 0.624993 0
0.458332 0.66666 0
0.499999 0.66666 0
0.416666 0.624993 0
0.458332 0.624993 0
0.416666 0.66666 0
0.458332 0.66666 0
0.458333 0.708327 0
0.499999 0.708327 0
0.458333 0.749994 0
0.499999 0.749994 0
0.416666 0.708327 0
0.458333 0.708327 0
0.416666 0.749994 0
0.458333 0.749994 0
0.416666 0.66666 0
0.458332 0.66666 0
0.416666 0.708327 0
0.458333 0.708327 0
0.458332 0.66666 0
0.499999 0.66666 0
0.458333 0.708327 0
0.499999 0.708327 0
0.458332 0.333326 0
0.499999 0.333326 0
0.458332 0.374993 0
0.499999 0.374993 0
0.458332 0.374993 0
0.499999 0.374993 0
0.458332 0.416659 0
0.499999 0.416659 0
0.416666 0.374993 0
0.458332 0.374993 0
0.416666 0.416659 0
0.458332 0.416659 0
0.416666 0.333327 0
0.458332 0.333326 0
0.416666 0.374993 0
0.458332 0.374993 0
0.375 0.874997 0
0.333333 0.874997 0
0.374999 0.83333 0
0.333333 0.83333 0
0.416666 0.874997 0
0.375 0.874997 0
0.416666 0.833329 0
0.374999 0.83333 0
0.374999 0.374993 0
0.374999 0.416659 0
0.333332 0.374993 0
0.333332 0.41666 0
0.374999 0.333327 0
0.374999 0.374993 0
0.333333 0.333327 0
0.333332 0.374993 0
0.416666 0.333327 0
0.416666 0.374993 0
0.374999 0.333327 0
0.374999 0.374993 0
0.416666 0.374993 0
0.416666 0.416659 0
0.374999 0.374993 0
0.374999 0.416659 0
0.791666 0.791664 0
0.791666 0.833331 0
0.75 0.791663 0
0.75 0.83333 0
0.791666 0.749997 0
0.791666 0.791664 0
0.749999 0.749996 0
0.75 0.791663 0
0.291666 0.624994 0
0.291666 0.666661 0
0.249999 0.624995 0
0.249999 0.666662 0
0.291666 0.583327 0
0.291666 0.624994 0
0.249999 0.583328 0
0.249999 0.624995 0
0.333332 0.583326 0
0.333332 0.624994 0
0.291666 0.583327 0
0.291666 0.624994 0
0.333332 0.624994 0
0.333333 0.666661 0
0.291666 0.624994 0
0.291666 0.666661 0
0.416666 0.333327 0
0.374999 0.333327 0
0.416666 0.29166 0
0.374999 0.291661 0
0.374999 0.333327 0
0.333333 0.333327 0
0.374999 0.291661 0
0.333333 0.291661 0
0.374999 0.291661 0
0.333333 0.291661 0
0.374999 0.249995 0
0.333333 0.249995 0
0.416666 0.29166 0
0.374999 0.291661 0
0.416666 0.249994 0
0.374999 0.249995 0
0.624999 0.66666 0
0.624999 0.708328 0
0.583332 0.66666 0
0.583333 0.708327 0
0.666666 0.666661 0
0.666666 0.708328 0
0.624999 0.66666 0
0.624999 0.708328 0
0.666666 0.708328 0
0.666666 0.749995 0
0.624999 0.708328 0
0.624999 0.749995 0
0.624999 0.708328 0
0.624999 0.749995 0
0.583333 0.708327 0
0.583333 0.749995 0
0.0416666 0.125 0
0.0416666 0.083333 0
0.0833332 0.124999 0
0.0833333 0.0833327 0
0 0.166667 0
0 0.125 0
0.0416666 0.166666 0
0.0416666 0.125 0
0 0.125 0
0 0.0833333 0
0.0416666 0.125 0
0.0416666 0.083333 0
0.541667 0.0416655 0
0.541667 0 0
0.583333 0.0416656 0
0.583333 0 0
0.541666 0.0833311 0
0.541667 0.0416655 0
0.583333 0.0833311 0
0.583333 0.0416656 0
0.5 0.0833311 0
0.5 0.0416655 0
0.541666 0.0833311 0
0.541667 0.0416655 0
0.5 0.0416655 0
0.5 0 0
0.541667 0.0416655 0
0.541667 0 0
0.666666 0.374994 0
0.708333 0.374994 0
0.666666 0.41666 0
0.708333 0.41666 0
0.666666 0.333327 0
0.708333 0.333328 0
0.666666 0.374994 0
0.708333 0.374994 0
0.708333 0.333328 0
0.749999 0.333328 0
0.708333 0.374994 0
0.749999 0.374995 0
0.708333 0.374994 0
0.749999 0.374995 0
0.708333 0.41666 0
0.749999 0.416661 0
0.333333 0.333327 0
0.333332 0.374993 0
0.291666 0.333328 0
0.291666 0.374994 0
0.333332 0.374993 0
0.333332 0.41666 0
0.291666 0.374994 0
0.291666 0.41666 0
0.291666 0.374994 0
0.291666 0.41666 0
0.249999 0.374994 0
0.249999 0.416661 0
0.291666 0.333328 0
0.291666 0.374994 0
0.249999 0.333328 0
0.249999 0.374994 0
0.625 0.124997 0
0.583333 0.124997 0
0.625 0.0833312 0
0.583333 0.0833311 0
0.666666 0.124997 0
0.625 0.124997 0
0.666666 0.0833314 0
0.625 0.0833312 0
0 0.0833333 0
0 0.0416667 0
0.0416666 0.083333 0
0.0416666 0.0416665 0
0 0.0416667 0
0 0 0
0.0416666 0.0416665 0
0.0416667 0 0
0.0416666 0.0416665 0
0.0416667 0 0
0.0833333 0.0416664 0
0.0833333 0 0
0.791666 0.70833 0
0.791666 0.749997 0
0.749999 0.708329 0
0.749999 0.749996 0
0.791666 0.666663 0
0.791666 0.70833 0
0.749999 0.666662 0
0.749999 0.708329 0
0.958333 0.0416665 0
0.916667 0.0416664 0
0.958333 0 0
0.916667 0 0
1 0.0416667 0
0.958333 0.0416665 0
1 0 0
0.958333 0 0
1 0.0833333 0
0.958333 0.083333 0
1 0.0416667 0
0.958333 0.0416665 0
0.958333 0.083333 0
0.916667 0.0833328 0
0.958333 0.0416665 0
0.916667 0.0416664 0
0.0833331 0.291665 0
0.0833331 0.249998 0
0.125 0.291664 0
0.125 0.249998 0
0.125 0.291664 0
0.125 0.249998 0
0.166666 0.291663 0
0.166666 0.249997 0
0.125 0.33333 0
0.125 0.291664 0
0.166666 0.33333 0
0.166666 0.291663 0
0.0833331 0.333331 0
0.0833331 0.291665 0
0.125 0.33333 0
0.125 0.291664 0
0.333333 0.791662 0
0.333333 0.83333 0
0.291666 0.791663 0
0.291666 0.83333 0
0.291666 0.791663 0
0.291666 0.83333 0
0.25 0.791663 0
0.25 0.83333 0
0.291666 0.749995 0
0.291666 0.791663 0
0.249999 0.749996 0
0.25 0.791663 0
0.333333 0.749995 0
0.333333 0.791662 0
0.291666 0.749995 0
0.291666 0.791663 0
0.0833331 0.333331 0
0.125 0.33333 0
0.083333 0.374998 0
0.125 0.374997 0
0.125 0.33333 0
0.166666 0.33333 0
0.125 0.374997 0
0.166666 0.374996 0
0.249999 0.666662 0
0.249999 0.708329 0
0.208333 0.666662 0
0.208333 0.708329 0
0.249999 0.708329 0
0.249999 0.749996 0
0.208333 0.708329 0
0.208333 0.749996 0
0.666666 0.458327 0
0.624999 0.458326 0
0.666666 0.41666 0
0.624999 0.41666 0
0.666666 0.499993 0
0.624999 0.499993 0
0.666666 0.458327 0
0.624999 0.458326 0
0.624999 0.499993 0
0.583332 0.499992 0
0.624999 0.458326 0
0.583332 0.458326 0
0.624999 0.458326 0
0.583332 0.458326 0
0.624999 0.41666 0
0.583332 0.416659 0
0.0416665 0.291666 0
0.0416666 0.249999 0
0.0833331 0.291665 0
0.0833331 0.249998 0
0 0.291667 0
0 0.25 0
0.0416665 0.291666 0
0.0416666 0.249999 0
0.249999 0.749996 0
0.25 0.791663 0
0.208333 0.749996 0
0.208333 0.791664 0
0.291666 0.499994 0
0.249999 0.499994 0
0.291666 0.458327 0
0.249999 0.458327 0
0.291666 0.458327 0
0.249999 0.458327 0
0.291666 0.41666 0
0.249999 0.416661 0
0.333332 0.458326 0
0.291666 0.458327 0
0.333332 0.41666 0
0.291666 0.41666 0
0.333332 0.499993 0
0.291666 0.499994 0
[...]
POINT_DATA 18804
SCALARS solution_0 double 1
LOOKUP_TABLE default
-0.0332255 -0.0104654 -0.0608324 -0.025807 -0.0594147 -0.0332255 -0.0979845 -0.0608324 -0.0289158 -0.0133707 -0.0594147 -0.0332255 -0.0133707 -0.00225505 -0.0332255 -0.0104654 -0.0221173 -0.0257183 0.0186309 0.0152571 -0.0190302 -0.0221173 0.0212253 0.0186309 -0.0588332 -0.0622797 -0.0190302 -0.0221173 -0.0622797 -0.0660106 -0.0221173 -0.0257183 0.0528736 0.0468944 0.0966848 0.090426 0.0572718 0.0528736 0.100927 0.0966848 0.0152571 0.0108454 0.0572718 0.0528736 0.0108454 0.00524778 0.0528736 0.0468944 -0.0257183 -0.0300321 0.0152571 0.0108454 -0.0660106 -0.0701573 -0.0257183 -0.0300321 -0.0701573 -0.0748042 -0.0300321 -0.0351768 -0.0300321 -0.0351768 0.0108454 0.00524778 -0.105731 -0.144848 -0.109643 -0.148368 -0.109643 -0.148368 -0.113723 -0.151776 -0.0701573 -0.109643 -0.0748042 -0.113723 -0.0660106 -0.105731 -0.0701573 -0.109643 -0.178501 -0.129159 -0.142339 -0.0979845 -0.227645 -0.178501 -0.18961 -0.142339 -0.198787 -0.149015 -0.178501 -0.129159 0.227434 0.182797 0.221217 0.188106 0.265657 0.227434 0.248977 0.221217 -0.183864 -0.186739 -0.144848 -0.148368 -0.225048 -0.227239 -0.183864 -0.186739 -0.227239 -0.230015 -0.186739 -0.189539 -0.186739 -0.189539 -0.148368 -0.151776 -0.0622797 -0.10198 -0.0660106 -0.105731 -0.0588332 -0.0983849 -0.0622797 -0.10198 -0.0983849 -0.13803 -0.10198 -0.14134 -0.10198 -0.14134 -0.105731 -0.144848 -0.271598 -0.321318 -0.273746 -0.324126 -0.273746 -0.324126 -0.277217 -0.328065 -0.227239 -0.273746 -0.230015 -0.277217 -0.225048 -0.271598 -0.227239 -0.273746 -0.0834926 -0.0594147 -0.129159 -0.0979845 -0.100303 -0.0834926 -0.149015 -0.129159 -0.0555985 -0.0439701 -0.100303 -0.0834926 -0.0439701 -0.0289158 -0.0834926 -0.0594147 -0.0857209 -0.0788891 -0.125653 -0.116285 -0.0465925 -0.0418457 -0.0857209 -0.0788891 -0.125101 -0.161006 -0.128978 -0.166531 -0.0901991 -0.125101 -0.0947966 -0.128978 -0.0851861 -0.121707 -0.0901991 -0.125101 -0.121707 -0.157801 -0.125101 -0.161006 0.0212253 0.0186309 0.0622622 0.0602901 0.0186309 0.0152571 0.0602901 0.0572718 0.0602901 0.0572718 0.103435 0.100927 0.0622622 0.0602901 0.104612 0.103435 0.148809 0.14703 0.196846 0.196209 0.148848 0.148809 0.195035 0.196846 0.104612 0.103435 0.148848 0.148809 0.103435 0.100927 0.148809 0.14703 -0.223405 -0.225048 -0.181105 -0.183864 -0.181105 -0.183864 -0.14134 -0.144848 -0.178766 -0.181105 -0.13803 -0.14134 -0.222397 -0.223405 -0.178766 -0.181105 0.296024 0.265657 0.270162 0.248977 0.318743 0.296024 0.285295 0.270162 -0.177111 -0.135215 -0.175791 -0.133013 -0.221815 -0.177111 -0.22025 -0.175791 -0.222397 -0.178766 -0.221815 -0.177111 -0.178766 -0.13803 -0.177111 -0.135215 0.125594 0.165293 0.160928 0.204862 0.0896861 0.125594 0.119132 0.160928 0.0654239 0.103157 0.0649257 0.099695 0.0273623 0.0654239 0.0287163 0.0649257 0.0254367 0.0647224 0.0273623 0.0654239 0.0647224 0.104541 0.0654239 0.103157 -0.222397 -0.221815 -0.26966 -0.268182 -0.221815 -0.22025 -0.268182 -0.263288 -0.268182 -0.263288 -0.309541 -0.298193 -0.26966 -0.268182 -0.315783 -0.309541 0.0819581 0.127398 0.090426 0.136662 0.0711347 0.115003 0.0819581 0.127398 0.115003 0.162006 0.127398 0.176176 0.127398 0.176176 0.136662 0.186277 -0.0028365 0.00100346 -0.0133707 -0.00225505 0 0 -0.00743624 -0.0028365 0 0 -0.0028365 0.00100346 -0.104324 0 -0.0905631 0 -0.199465 -0.104324 -0.181136 -0.0905631 -0.207074 -0.109923 -0.199465 -0.104324 -0.109923 0 -0.104324 0 -0.195632 -0.200995 -0.157801 -0.161006 -0.239406 -0.247693 -0.195632 -0.200995 -0.247693 -0.258444 -0.200995 -0.209666 -0.200995 -0.209666 -0.161006 -0.166531 -0.22025 -0.175791 -0.214859 -0.172915 -0.175791 -0.133013 -0.172915 -0.130626 -0.172915 -0.130626 -0.165634 -0.125653 -0.214859 -0.172915 -0.203594 -0.165634 -0.250239 -0.27923 -0.153329 -0.181136 -0.20904 -0.250239 -0.117698 -0.153329 0 0 0.00100346 -0.0011992 0 0 -0.0011992 0 -0.0011992 0 0.00339489 0 0.0559562 0.0896861 0.079506 0.119132 0.0238175 0.0559562 0.0420713 0.079506 -0.00202252 0.00160392 0 0 0 -0.00202252 0 0 0 0.000855781 0 -0.00202252 0.000855781 0.00244894 -0.00202252 0.00160392 -0.0617757 -0.0555985 -0.107788 -0.100303 -0.107788 -0.100303 -0.155724 -0.149015 -0.104915 -0.107788 -0.147014 -0.155724 -0.0617651 -0.0617757 -0.104915 -0.107788 0.220144 0.248977 0.202176 0.221217 0.202176 0.221217 0.17876 0.188106 0.173922 0.202176 0.159259 0.17876 0.184058 0.220144 0.173922 0.202176 -0.0617651 -0.104915 -0.0544202 -0.0925754 -0.104915 -0.147014 -0.0925754 -0.127278 0.099695 0.131862 0.0930854 0.11969 0.131862 0.159259 0.11969 0.139769 -0.121707 -0.117842 -0.157801 -0.154933 -0.0851861 -0.0799018 -0.121707 -0.117842 -0.0799018 -0.0748042 -0.117842 -0.113723 -0.117842 -0.113723 -0.154933 -0.151776 -0.0190731 -0.0176764 -0.0617757 -0.0555985 0 0 -0.0190731 -0.0176764 0.159259 0.17876 0.139769 0.150879 -0.0497557 -0.0465925 -0.0895114 -0.0857209 -0.0895114 -0.0857209 -0.130626 -0.125653 -0.0921815 -0.0895114 -0.133013 -0.130626 -0.0525791 -0.0497557 -0.0921815 -0.0895114 -0.0176764 -0.0131221 -0.0555985 -0.0439701 0 0 -0.0176764 -0.0131221 0 0 -0.0131221 -0.00743624 -0.0131221 -0.00743624 -0.0439701 -0.0289158 -0.22025 -0.214859 -0.263288 -0.252904 0.0578456 0.0420713 0.0991404 0.079506 0.0991404 0.079506 0.143174 0.119132 0.115003 0.0991404 0.162006 0.143174 0.0711347 0.0578456 0.115003 0.0991404 0.24176 0.285295 0.233083 0.270162 0.233083 0.270162 0.220144 0.248977 0.190873 0.233083 0.184058 0.220144 0.195035 0.24176 0.190873 0.233083 -0.100513 -0.0947966 -0.136061 -0.128978 -0.136061 -0.128978 -0.176495 -0.166531 -0.0684953 -0.0377729 -0.0615185 -0.0279399 -0.100513 -0.0684953 -0.0947966 -0.0615185 -0.0478851 0 -0.027309 0 -0.027309 0 -0.0104621 0 0.000191781 -0.0104621 0 0 0.00496939 0.000191781 0 0 -0.190853 -0.168632 -0.0958068 -0.0798236 -0.168632 -0.140123 -0.0798236 -0.0614824 -0.0798236 -0.0614824 0 0 -0.0958068 -0.0798236 0 0 0.195035 0.196846 0.24176 0.246655 0.196846 0.196209 0.246655 0.247937 0.246655 0.247937 0.294827 0.299113 0.24176 0.246655 0.285295 0.294827 0.0298567 0.0188431 0.0711347 0.0578456 -0.00958383 -0.0185179 0.0298567 0.0188431 -0.0185179 -0.0279399 0.0188431 0.00643121 0.0188431 0.00643121 0.0578456 0.0420713 -0.00723667 0.0238175 0.00643121 0.0420713 -0.0377729 -0.00723667 -0.0279399 0.00643121 -0.0478851 -0.0708627 0 0 -0.117698 -0.153329 -0.0478851 -0.0708627 -0.153329 -0.181136 -0.0708627 -0.0905631 -0.0708627 -0.0905631 0 0 -0.0555922 -0.0525791 -0.0950603 -0.0921815 -0.0950603 -0.0921815 -0.135215 -0.133013 -0.0983849 -0.0950603 -0.13803 -0.135215 -0.0588332 -0.0555922 -0.0983849 -0.0950603 -0.0411585 -0.001584 -0.0351768 0.00524778 -0.0799018 -0.0411585 -0.0748042 -0.0351768 -0.0851861 -0.0478185 -0.0799018 -0.0411585 -0.0478185 -0.00958383 -0.0411585 -0.001584 0.00463746 0.00496939 0 0 0.00160392 0.00463746 0 0 0.00244894 0.00242934 0.00160392 0.00463746 0.00242934 -0.00373632 0.00463746 0.00496939 -0.299307 -0.207074 -0.295292 -0.199465 -0.295292 -0.199465 -0.27923 -0.181136 -0.233811 -0.192321 -0.230015 -0.189539 -0.239406 -0.195632 -0.233811 -0.192321 -0.195632 -0.157801 -0.192321 -0.154933 -0.192321 -0.154933 -0.189539 -0.151776 -0.0588332 -0.0190302 -0.0555922 -0.016225 -0.0190302 0.0212253 -0.016225 0.0233932 -0.016225 0.0233932 -0.0135387 0.0254367 -0.0555922 -0.016225 -0.0525791 -0.0135387 -0.282287 -0.277217 -0.332852 -0.328065 -0.239406 -0.233811 -0.289275 -0.282287 -0.233811 -0.230015 -0.282287 -0.277217 0.0622622 0.104612 0.0636277 0.104906 0.0636277 0.104906 0.0647224 0.104541 0.0233932 0.0636277 0.0254367 0.0647224 0.0212253 0.0622622 0.0233932 0.0636277 -0.0478185 -0.0547689 -0.00958383 -0.0185179 -0.0851861 -0.0901991 -0.0478185 -0.0547689 -0.0901991 -0.0947966 -0.0547689 -0.0615185 -0.0547689 -0.0615185 -0.0185179 -0.0279399 -0.223405 -0.270398 -0.225048 -0.271598 -0.222397 -0.26966 -0.223405 -0.270398 -0.26966 -0.315783 -0.270398 -0.318941 -0.270398 -0.318941 -0.271598 -0.321318 0.0649257 0.099695 0.0624383 0.0930854 0.0287163 0.0649257 0.0292242 0.0624383 0.148848 0.195035 0.147478 0.190873 0.147478 0.190873 0.144688 0.184058 0.104906 0.147478 0.104541 0.144688 0.104612 0.148848 0.104906 0.147478 -0.00958383 0.0298567 -0.001584 0.039231 0.0298567 0.0711347 0.039231 0.0819581 0.039231 0.0819581 0.0468944 0.090426 -0.001584 0.039231 0.00524778 0.0468944 -0.239406 -0.289275 -0.247693 -0.297914 0.000878753 0.000622613 0.000855781 0.00244894 0 0.000878753 0 0.000855781 0 0.00038769 0 0.000878753 0.00038769 -0.00413926 0.000878753 0.000622613 0.100927 0.0966848 0.14703 0.143102 0.0966848 0.090426 0.143102 0.136662 0.143102 0.136662 0.192814 0.186277 0.14703 0.143102 0.196209 0.192814 0.144688 0.184058 0.139855 0.173922 0.139855 0.173922 0.131862 0.159259 0.103157 0.139855 0.099695 0.131862 0.104541 0.144688 0.103157 0.139855 0.318743 0.285295 0.334065 0.294827 0.334065 0.294827 0.342447 0.299113 -0.0465925 -0.00847092 -0.0418457 -0.00568389 -0.00847092 0.0287163 -0.00568389 0.0292242 -0.0525791 -0.0135387 -0.0497557 -0.0109447 -0.0135387 0.0254367 -0.0109447 0.0273623 -0.0109447 0.0273623 -0.00847092 0.0287163 -0.0497557 -0.0109447 -0.0465925 -0.00847092 -0.00647117 -0.0246521 0.00242934 -0.00373632 0.000622613 -0.00647117 0.00244894 0.00242934 -0.00413926 -0.0215542 0.000622613 -0.00647117 -0.190853 -0.0958068 -0.204008 -0.106715 -0.0958068 0 -0.106715 0 -0.106715 0 -0.109923 0 -0.204008 -0.106715 -0.207074 -0.109923 0.245493 0.239021 0.298244 0.292028 0.247937 0.245493 0.299113 0.298244 0.196209 0.192814 0.247937 0.245493 0.192814 0.186277 0.245493 0.239021 -0.0121332 -0.00199428 0 0 -0.0265247 -0.0121332 0 0 -0.0765875 -0.0485285 -0.0265247 -0.0121332 -0.140123 -0.108149 -0.0614824 -0.0432151 -0.108149 -0.0765875 -0.0432151 -0.0265247 -0.0432151 -0.0265247 0 0 -0.0614824 -0.0432151 0 0 0.228005 0.280099 0.239021 0.292028 0.176176 0.228005 0.186277 0.239021 0.162006 0.211746 0.176176 0.228005 0.211746 0.261974 0.228005 0.280099 -0.276113 -0.234895 -0.217005 -0.177959 -0.234895 -0.18961 -0.177959 -0.136084 -0.177959 -0.136084 -0.108149 -0.0765875 -0.217005 -0.177959 -0.140123 -0.108149 -0.310122 -0.276113 -0.250748 -0.217005 -0.250748 -0.217005 -0.168632 -0.140123 -0.275597 -0.250748 -0.190853 -0.168632 -0.275597 -0.190853 -0.29241 -0.204008 -0.29241 -0.204008 -0.299307 -0.207074 -0.00225505 0.00339489 -0.0104654 0.00349564 0.00339489 0 0.00349564 0 0.00349564 0 -0.00199428 0 -0.0104654 0.00349564 -0.025807 -0.00199428 0.189588 0.160928 0.237035 0.204862 0.211746 0.189588 0.261974 0.237035 0.162006 0.143174 0.211746 0.189588 0.143174 0.119132 0.189588 0.160928 0.327942 0.339363 0.280099 0.292028 -0.095855 -0.0608324 -0.0485285 -0.025807 -0.136084 -0.095855 -0.0765875 -0.0485285 -0.18961 -0.142339 -0.136084 -0.095855 -0.142339 -0.0979845 -0.095855 -0.0608324 0.342447 0.299113 0.344184 0.298244 0.344184 0.298244 0.339363 0.292028 0.266117 0.242441 0.267651 0.247117 0.242441 0.216489 0.247117 0.223942 0.267651 0.247117 0.265657 0.246546 0.247117 0.223942 0.246546 0.227434 0.216489 0.188219 0.223942 0.199208 0.188219 0.158048 0.199208 0.17174 0.223942 0.199208 0.227434 0.205116 0.199208 0.17174 0.205116 0.182797 0.0424289 0.0557428 0.0643479 0.0791811 0.0557428 0.0718888 0.0791811 0.0966509 0.0643479 0.0791811 0.0856376 0.10199 0.0791811 0.0966509 0.10199 0.120497 0.0201019 0.0307941 0.0387182 0.0510744 0.0307941 0.0424289 0.0510744 0.0643479 0.0387182 0.0510744 0.0564846 0.0706574 0.0510744 0.0643479 0.0706574 0.0856376 0.158048 0.126698 0.17174 0.143017 0.126698 0.0948182 0.143017 0.1137 0.17174 0.143017 0.182797 0.155834 0.143017 0.1137 0.155834 0.129194 0.0948182 0.0629974 0.1137 0.0843886 0.0629974 0.0324135 0.0843886 0.0560293 0.1137 0.0843886 0.129194 0.102456 0.0843886 0.0560293 0.102456 0.0762156 -0.0316952 -0.015455 -0.0438314 -0.0212127 -0.015455 -0.00545597 -0.0212127 -0.00558611 -0.0438314 -0.0212127 -0.0451201 -0.0192979 -0.0212127 -0.00558611 -0.0192979 5.39343e-05 0 0 -0.0115712 -0.00533293 0 0 -0.00533293 -0.00206821 -0.0115712 -0.00533293 -0.0316952 -0.015455 -0.00533293 -0.00206821 -0.015455 -0.00545597 0.337566 0.323027 0.329553 0.317385 0.323027 0.306373 0.317385 0.302837 0.329553 0.317385 0.318743 0.307384 0.317385 0.302837 0.307384 0.296024 0.306373 0.287351 0.302837 0.286512 0.287351 0.266117 0.286512 0.267651 0.302837 0.286512 0.296024 0.280841 0.286512 0.267651 0.280841 0.265657 -0.26594 -0.264335 -0.279156 -0.284215 -0.264335 -0.258444 -0.284215 -0.282794 -0.279156 -0.284215 -0.28306 -0.296884 -0.284215 -0.282794 -0.296884 -0.302132 -0.28306 -0.296884 -0.273784 -0.298182 -0.296884 -0.302132 -0.298182 -0.312434 -0.273784 -0.298182 -0.253205 -0.286017 -0.298182 -0.312434 -0.286017 -0.309885 -0.220253 -0.25703 -0.196773 -0.239327 -0.25703 -0.28306 -0.239327 -0.273784 -0.196773 -0.239327 -0.168286 -0.212944 -0.239327 -0.273784 -0.212944 -0.253205 0.0564846 0.0706574 0.0734833 0.0895387 0.0706574 0.0856376 0.0895387 0.106206 0.0734833 0.0895387 0.0896861 0.10764 0.0895387 0.106206 0.10764 0.125594 0.0856376 0.10199 0.106206 0.123944 0.10199 0.120497 0.123944 0.143451 0.106206 0.123944 0.125594 0.145444 0.123944 0.143451 0.145444 0.165293 -0.0970708 -0.0822645 -0.0875067 -0.0722536 -0.0822645 -0.0683572 -0.0722536 -0.057995 -0.0875067 -0.0722536 -0.0791048 -0.0640061 -0.0722536 -0.057995 -0.0640061 -0.049636 -0.128821 -0.112676 -0.121279 -0.103839 -0.112676 -0.0970708 -0.103839 -0.0875067 -0.121279 -0.103839 -0.11244 -0.0952122 -0.103839 -0.0875067 -0.0952122 -0.0791048 -0.0190759 0.00749178 0.00447245 0.0298722 0.00749178 0.0295846 0.0298722 0.0514798 0.00447245 0.0298722 0.0324135 0.0560293 0.0298722 0.0514798 0.0560293 0.0762156 -0.0451201 -0.0192979 -0.0362758 -0.00941296 -0.0192979 5.39343e-05 -0.00941296 0.0120066 -0.0362758 -0.00941296 -0.0190759 0.00749178 -0.00941296 0.0120066 0.00749178 0.0295846 -0.0218239 -0.0410243 -0.0207778 -0.0391383 -0.0410243 -0.0617651 -0.0391383 -0.0580927 -0.0207778 -0.0391383 -0.0189454 -0.0360761 -0.0391383 -0.0580927 -0.0360761 -0.0544202 -0.0189454 -0.0360761 -0.0169771 -0.0323284 -0.0360761 -0.0544202 -0.0323284 -0.0492117 -0.0169771 -0.0323284 -0.0142039 -0.0278381 -0.0323284 -0.0492117 -0.0278381 -0.0429929 0 -0.00641827 0 -0.00588269 -0.00641827 -0.0218239 -0.00588269 -0.0207778 0 -0.00588269 0 -0.00488596 -0.00588269 -0.0207778 -0.00488596 -0.0189454 -0.333473 -0.333761 -0.325165 -0.317128 -0.333761 -0.318639 -0.317128 -0.294434 -0.325165 -0.317128 -0.309885 -0.293148 -0.317128 -0.294434 -0.293148 -0.26386 -0.336885 -0.349919 -0.336744 -0.34419 -0.349919 -0.349095 -0.34419 -0.336597 -0.336744 -0.34419 -0.333473 -0.333761 -0.34419 -0.336597 -0.333761 -0.318639 -0.0431673 -0.0317019 -0.031833 -0.0196168 -0.0317019 -0.0208172 -0.0196168 -0.00778611 -0.031833 -0.0196168 -0.022474 -0.00936576 -0.0196168 -0.00778611 -0.00936576 0.00362811 -0.0683572 -0.0553498 -0.057995 -0.0445694 -0.0553498 -0.0431673 -0.0445694 -0.031833 -0.057995 -0.0445694 -0.049636 -0.0358661 -0.0445694 -0.031833 -0.0358661 -0.022474 -0.0729404 -0.118544 -0.0596931 -0.101142 -0.118544 -0.167495 -0.101142 -0.148709 -0.0596931 -0.101142 -0.0471842 -0.0831423 -0.101142 -0.148709 -0.0831423 -0.127305 0.21566 0.235344 0.188181 0.208962 0.235344 0.253333 0.208962 0.227702 0.188181 0.208962 0.165293 0.185078 0.208962 0.227702 0.185078 0.204862 0.171665 0.194394 0.1429 0.166135 0.194394 0.21566 0.166135 0.188181 0.1429 0.166135 0.120497 0.143451 0.166135 0.188181 0.143451 0.165293 0.00362811 0.0165799 0.0139752 0.0285457 0.0165799 0.0296322 0.0285457 0.0430962 0.0139752 0.0285457 0.0238175 0.0398868 0.0285457 0.0430962 0.0398868 0.0559562 0.0296322 0.042881 0.0430962 0.0581971 0.042881 0.0564846 0.0581971 0.0734833 0.0430962 0.0581971 0.0559562 0.0728211 0.0581971 0.0734833 0.0728211 0.0896861 -0.000200215 0.00987802 0.0153157 0.0268888 0.00987802 0.0201019 0.0268888 0.0387182 0.0153157 0.0268888 0.0296322 0.042881 0.0268888 0.0387182 0.042881 0.0564846 -0.0208172 -0.0103707 -0.00778611 0.00381442 -0.0103707 -0.000200215 0.00381442 0.0153157 -0.00778611 0.00381442 0.00362811 0.0165799 0.00381442 0.0153157 0.0165799 0.0296322 -0.26594 -0.246187 -0.264335 -0.240616 -0.246187 -0.223434 -0.240616 -0.216275 -0.264335 -0.240616 -0.258444 -0.234055 -0.240616 -0.216275 -0.234055 -0.209666 -0.228257 -0.211367 -0.228921 -0.207402 -0.211367 -0.191832 -0.207402 -0.185083 -0.228921 -0.207402 -0.223434 -0.199906 -0.207402 -0.185083 -0.199906 -0.176495 0.121163 0.147522 0.092703 0.11849 0.147522 0.171665 0.11849 0.1429 0.092703 0.11849 0.0718888 0.0966509 0.11849 0.1429 0.0966509 0.120497 -0.336885 -0.335303 -0.349919 -0.352441 -0.335303 -0.332852 -0.352441 -0.352885 -0.349919 -0.352441 -0.349095 -0.357213 -0.352441 -0.352885 -0.357213 -0.362053 -0.332852 -0.330458 -0.352885 -0.352037 -0.330458 -0.328065 -0.352037 -0.350799 -0.352885 -0.352037 -0.362053 -0.364529 -0.352037 -0.350799 -0.364529 -0.365401 -0.324126 -0.34762 -0.326095 -0.349135 -0.34762 -0.364289 -0.349135 -0.365222 -0.326095 -0.349135 -0.328065 -0.350799 -0.349135 -0.365222 -0.350799 -0.365401 -0.321318 -0.344272 -0.322722 -0.345882 -0.344272 -0.360778 -0.345882 -0.362813 -0.322722 -0.345882 -0.324126 -0.34762 -0.345882 -0.362813 -0.34762 -0.364289 0 0.0037518 0 0.0040415 0.0037518 0.0111726 0.0040415 0.0131138 0 0.0040415 0 0.00440059 0.0040415 0.0131138 0.00440059 0.0146519 0.0111726 0.0174311 0.0131138 0.0218818 0.0174311 0.021576 0.0218818 0.0285097 0.0131138 0.0218818 0.0146519 0.0256135 0.0218818 0.0285097 0.0256135 0.0347615 -0.150676 -0.142671 -0.171107 -0.163154 -0.142671 -0.136061 -0.163154 -0.156278 -0.171107 -0.163154 -0.191832 -0.185083 -0.163154 -0.156278 -0.185083 -0.176495 -0.11244 -0.105556 -0.131003 -0.123308 -0.105556 -0.100513 -0.123308 -0.118287 -0.131003 -0.123308 -0.150676 -0.142671 -0.123308 -0.118287 -0.142671 -0.136061 -0.00770086 -0.0110583 -0.01704 -0.0226793 -0.0110583 -0.0142039 -0.0226793 -0.0278381 -0.01704 -0.0226793 -0.0280389 -0.0358453 -0.0226793 -0.0278381 -0.0358453 -0.0429929 -0.000684211 -0.0042792 -0.00499441 -0.0111696 -0.0042792 -0.00770086 -0.0111696 -0.01704 -0.00499441 -0.0111696 -0.0113647 -0.0198121 -0.0111696 -0.01704 -0.0198121 -0.0280389 -0.049636 -0.0358661 -0.0432539 -0.0287343 -0.0358661 -0.022474 -0.0287343 -0.0145669 -0.0432539 -0.0287343 -0.0377729 -0.0225048 -0.0287343 -0.0145669 -0.0225048 -0.00723667 -0.022474 -0.00936576 -0.0145669 -0.000213038 -0.00936576 0.00362811 -0.000213038 0.0139752 -0.0145669 -0.000213038 -0.00723667 0.0082904 -0.000213038 0.0139752 0.0082904 0.0238175 -0.318941 -0.340249 -0.32013 -0.342355 -0.340249 -0.354788 -0.342355 -0.358164 -0.32013 -0.342355 -0.321318 -0.344272 -0.342355 -0.358164 -0.344272 -0.360778 -0.289275 -0.285781 -0.314964 -0.311202 -0.285781 -0.282287 -0.311202 -0.307569 -0.314964 -0.311202 -0.336885 -0.335303 -0.311202 -0.307569 -0.335303 -0.332852 -0.128821 -0.121279 -0.144855 -0.139537 -0.121279 -0.11244 -0.139537 -0.131003 -0.144855 -0.139537 -0.160568 -0.158437 -0.139537 -0.131003 -0.158437 -0.150676 -0.289275 -0.314964 -0.293595 -0.318057 -0.314964 -0.336885 -0.318057 -0.336744 -0.293595 -0.318057 -0.297914 -0.320049 -0.318057 -0.336744 -0.320049 -0.333473 -0.297914 -0.320049 -0.301629 -0.318927 -0.320049 -0.333473 -0.318927 -0.325165 -0.301629 -0.318927 -0.302132 -0.312434 -0.318927 -0.325165 -0.312434 -0.309885 -0.247693 -0.272803 -0.253068 -0.277978 -0.272803 -0.297914 -0.277978 -0.301629 -0.253068 -0.277978 -0.258444 -0.282794 -0.277978 -0.301629 -0.282794 -0.302132 0.360212 0.348139 0.368502 0.354614 0.348139 0.334065 0.354614 0.338256 0.368502 0.354614 0.374984 0.359092 0.354614 0.338256 0.359092 0.342447 0.337566 0.329553 0.349874 0.339933 0.329553 0.318743 0.339933 0.326404 0.349874 0.339933 0.360212 0.348139 0.339933 0.326404 0.348139 0.334065 -0.00741381 -0.0221732 -0.00526859 -0.0161802 -0.0221732 -0.0471842 -0.0161802 -0.0359991 -0.00526859 -0.0161802 -0.00343614 -0.0113847 -0.0161802 -0.0359991 -0.0113847 -0.0264828 0 -0.00116452 0 -0.000902177 -0.00116452 -0.00741381 -0.000902177 -0.00526859 0 -0.000902177 0 -0.000439139 -0.0