# vtk DataFile Version 3.0
#This file was generated by the deal.II library on 2020/11/19 at 14:55:21
ASCII
DATASET UNSTRUCTURED_GRID

POINTS 8868 double
0.125 0.124999 0
0.125 0.0833324 0
0.166666 0.124998 0
0.166667 0.0833322 0
0.125 0.166665 0
0.125 0.124999 0
0.166666 0.166664 0
0.166666 0.124998 0
0.0833332 0.166666 0
0.0833332 0.124999 0
0.125 0.166665 0
0.125 0.124999 0
0.0833332 0.124999 0
0.0833333 0.0833327 0
0.125 0.124999 0
0.125 0.0833324 0
0.458332 0.541659 0
0.499999 0.541659 0
0.458332 0.583326 0
0.499999 0.583326 0
0.416666 0.541659 0
0.458332 0.541659 0
0.416666 0.583326 0
0.458332 0.583326 0
0.416666 0.499992 0
0.458332 0.499992 0
0.416666 0.541659 0
0.458332 0.541659 0
0.458332 0.499992 0
0.499999 0.499992 0
0.458332 0.541659 0
0.499999 0.541659 0
0.541666 0.624993 0
0.583332 0.624993 0
0.541666 0.66666 0
0.583332 0.66666 0
0.499999 0.624993 0
0.541666 0.624993 0
0.499999 0.66666 0
0.541666 0.66666 0
0.499999 0.583326 0
0.541666 0.583326 0
0.499999 0.624993 0
0.541666 0.624993 0
0.541666 0.583326 0
0.583332 0.583326 0
0.541666 0.624993 0
0.583332 0.624993 0
0.499999 0.541659 0
0.541666 0.541659 0
0.499999 0.583326 0
0.541666 0.583326 0
0.499999 0.499992 0
0.541666 0.499992 0
0.499999 0.541659 0
0.541666 0.541659 0
0.541666 0.499992 0
0.583332 0.499992 0
0.541666 0.541659 0
0.583332 0.541659 0
0.541666 0.541659 0
0.583332 0.541659 0
0.541666 0.583326 0
0.583332 0.583326 0
0.499999 0.458326 0
0.499999 0.416659 0
0.541666 0.458326 0
0.541666 0.416659 0
0.541666 0.458326 0
0.541666 0.416659 0
0.583332 0.458326 0
0.583332 0.416659 0
0.541666 0.499992 0
0.541666 0.458326 0
0.583332 0.499992 0
0.583332 0.458326 0
0.499999 0.499992 0
0.499999 0.458326 0
0.541666 0.499992 0
0.541666 0.458326 0
0.208333 0.20833 0
0.166666 0.208331 0
0.208333 0.166664 0
0.166666 0.166664 0
0.25 0.20833 0
0.208333 0.20833 0
0.25 0.166664 0
0.208333 0.166664 0
0.249999 0.249996 0
0.208333 0.249996 0
0.25 0.20833 0
0.208333 0.20833 0
0.208333 0.249996 0
0.166666 0.249997 0
0.208333 0.20833 0
0.166666 0.208331 0
0.291666 0.874997 0
0.25 0.874998 0
0.291666 0.83333 0
0.25 0.83333 0
0.333333 0.874997 0
0.291666 0.874997 0
0.333333 0.83333 0
0.291666 0.83333 0
0.499999 0.374993 0
0.541666 0.374993 0
0.499999 0.416659 0
0.541666 0.416659 0
0.499999 0.333326 0
0.541666 0.333326 0
0.499999 0.374993 0
0.541666 0.374993 0
0.541666 0.333326 0
0.583332 0.333327 0
0.541666 0.374993 0
0.583332 0.374993 0
0.541666 0.374993 0
0.583332 0.374993 0
0.541666 0.416659 0
0.583332 0.416659 0
0.458332 0.499992 0
0.458332 0.458326 0
0.499999 0.499992 0
0.499999 0.458326 0
0.416666 0.499992 0
0.416666 0.458326 0
0.458332 0.499992 0
0.458332 0.458326 0
0.416666 0.458326 0
0.416666 0.416659 0
0.458332 0.458326 0
0.458332 0.416659 0
0.458332 0.458326 0
0.458332 0.416659 0
0.499999 0.458326 0
0.499999 0.416659 0
0.708333 0.166663 0
0.708333 0.124997 0
0.75 0.166664 0
0.75 0.124998 0
0.666666 0.166663 0
0.666666 0.124997 0
0.708333 0.166663 0
0.708333 0.124997 0
0.666666 0.124997 0
0.666666 0.0833314 0
0.708333 0.124997 0
0.708333 0.0833316 0
0.708333 0.124997 0
0.708333 0.0833316 0
0.75 0.124998 0
0.75 0.0833317 0
0.499999 0.29166 0
0.499999 0.249994 0
0.541666 0.29166 0
0.541666 0.249994 0
0.541666 0.29166 0
0.541666 0.249994 0
0.583333 0.29166 0
0.583333 0.249994 0
0.541666 0.333326 0
0.541666 0.29166 0
0.583332 0.333327 0
0.583333 0.29166 0
0.499999 0.333326 0
0.499999 0.29166 0
0.541666 0.333326 0
0.541666 0.29166 0
0.125 0.208331 0
0.125 0.166665 0
0.166666 0.208331 0
0.166666 0.166664 0
0.125 0.249998 0
0.125 0.208331 0
0.166666 0.249997 0
0.166666 0.208331 0
0.0833331 0.249998 0
0.0833331 0.208332 0
0.125 0.249998 0
0.125 0.208331 0
0.0833331 0.208332 0
0.0833332 0.166666 0
0.125 0.208331 0
0.125 0.166665 0
0.249999 0.458327 0
0.208333 0.458328 0
0.249999 0.416661 0
0.208333 0.416662 0
0.249999 0.499994 0
0.208333 0.499995 0
0.249999 0.458327 0
0.208333 0.458328 0
0.208333 0.499995 0
0.166666 0.499996 0
0.208333 0.458328 0
0.166666 0.458329 0
0.208333 0.458328 0
0.166666 0.458329 0
0.208333 0.416662 0
0.166666 0.416662 0
0.708333 0.458327 0
0.708333 0.41666 0
0.749999 0.458328 0
0.749999 0.416661 0
0.708332 0.499994 0
0.708333 0.458327 0
0.749999 0.499994 0
0.749999 0.458328 0
0.666666 0.499993 0
0.666666 0.458327 0
0.708332 0.499994 0
0.708333 0.458327 0
0.666666 0.458327 0
0.666666 0.41666 0
0.708333 0.458327 0
0.708333 0.41666 0
0.416666 0.583326 0
0.458332 0.583326 0
0.416666 0.624993 0
0.458332 0.624993 0
0.458332 0.583326 0
0.499999 0.583326 0
0.458332 0.624993 0
0.499999 0.624993 0
0.458332 0.624993 0
0.499999 0.624993 0
0.458332 0.66666 0
0.499999 0.66666 0
0.416666 0.624993 0
0.458332 0.624993 0
0.416666 0.66666 0
0.458332 0.66666 0
0.458333 0.708327 0
0.499999 0.708327 0
0.458333 0.749994 0
0.499999 0.749994 0
0.416666 0.708327 0
0.458333 0.708327 0
0.416666 0.749994 0
0.458333 0.749994 0
0.416666 0.66666 0
0.458332 0.66666 0
0.416666 0.708327 0
0.458333 0.708327 0
0.458332 0.66666 0
0.499999 0.66666 0
0.458333 0.708327 0
0.499999 0.708327 0
0.208333 0.874998 0
0.166666 0.874998 0
0.208333 0.833331 0
0.166666 0.833331 0
0.25 0.874998 0
0.208333 0.874998 0
0.25 0.83333 0
0.208333 0.833331 0
0 0.875 0
0 0.833333 0
0.0416666 0.875 0
0.0416666 0.833333 0
0.0416666 0.875 0
0.0416666 0.833333 0
0.0833332 0.874999 0
0.0833332 0.833332 0
0.458332 0.333326 0
0.499999 0.333326 0
0.458332 0.374993 0
0.499999 0.374993 0
0.458332 0.374993 0
0.499999 0.374993 0
0.458332 0.416659 0
0.499999 0.416659 0
0.416666 0.374993 0
0.458332 0.374993 0
0.416666 0.416659 0
0.458332 0.416659 0
0.416666 0.333327 0
0.458332 0.333326 0
0.416666 0.374993 0
0.458332 0.374993 0
0.125 0.45833 0
0.125 0.416663 0
0.166666 0.458329 0
0.166666 0.416662 0
0.125 0.499997 0
0.125 0.45833 0
0.166666 0.499996 0
0.166666 0.458329 0
0.083333 0.499998 0
0.083333 0.458331 0
0.125 0.499997 0
0.125 0.45833 0
0.083333 0.458331 0
0.083333 0.416664 0
0.125 0.45833 0
0.125 0.416663 0
0.375 0.874997 0
0.333333 0.874997 0
0.374999 0.83333 0
0.333333 0.83333 0
0.416666 0.874997 0
0.375 0.874997 0
0.416666 0.833329 0
0.374999 0.83333 0
0.374999 0.374993 0
0.374999 0.416659 0
0.333332 0.374993 0
0.333332 0.41666 0
0.374999 0.333327 0
0.374999 0.374993 0
0.333333 0.333327 0
0.333332 0.374993 0
0.416666 0.333327 0
0.416666 0.374993 0
0.374999 0.333327 0
0.374999 0.374993 0
0.416666 0.374993 0
0.416666 0.416659 0
0.374999 0.374993 0
0.374999 0.416659 0
0.791666 0.791664 0
0.791666 0.833331 0
0.75 0.791663 0
0.75 0.83333 0
0.791666 0.749997 0
0.791666 0.791664 0
0.749999 0.749996 0
0.75 0.791663 0
0.291666 0.624994 0
0.291666 0.666661 0
0.249999 0.624995 0
0.249999 0.666662 0
0.291666 0.583327 0
0.291666 0.624994 0
0.249999 0.583328 0
0.249999 0.624995 0
0.333332 0.583326 0
0.333332 0.624994 0
0.291666 0.583327 0
0.291666 0.624994 0
0.333332 0.624994 0
0.333333 0.666661 0
0.291666 0.624994 0
0.291666 0.666661 0
0.416666 0.333327 0
0.374999 0.333327 0
0.416666 0.29166 0
0.374999 0.291661 0
0.374999 0.333327 0
0.333333 0.333327 0
0.374999 0.291661 0
0.333333 0.291661 0
0.374999 0.291661 0
0.333333 0.291661 0
0.374999 0.249995 0
0.333333 0.249995 0
0.416666 0.29166 0
0.374999 0.291661 0
0.416666 0.249994 0
0.374999 0.249995 0
0.624999 0.66666 0
0.624999 0.708328 0
0.583332 0.66666 0
0.583333 0.708327 0
0.666666 0.666661 0
0.666666 0.708328 0
0.624999 0.66666 0
0.624999 0.708328 0
0.666666 0.708328 0
0.666666 0.749995 0
0.624999 0.708328 0
0.624999 0.749995 0
0.624999 0.708328 0
0.624999 0.749995 0
0.583333 0.708327 0
0.583333 0.749995 0
0.0416666 0.125 0
0.0416666 0.083333 0
0.0833332 0.124999 0
0.0833333 0.0833327 0
0.0416666 0.166666 0
0.0416666 0.125 0
0.0833332 0.166666 0
0.0833332 0.124999 0
0 0.166667 0
0 0.125 0
0.0416666 0.166666 0
0.0416666 0.125 0
0 0.125 0
0 0.0833333 0
0.0416666 0.125 0
0.0416666 0.083333 0
0.0833332 0.874999 0
0.0833332 0.833332 0
0.125 0.874999 0
0.125 0.833332 0
0.125 0.874999 0
0.125 0.833332 0
0.166666 0.874998 0
0.166666 0.833331 0
0.541667 0.0416655 0
0.541667 0 0
0.583333 0.0416656 0
0.583333 0 0
0.541666 0.0833311 0
0.541667 0.0416655 0
0.583333 0.0833311 0
0.583333 0.0416656 0
0.5 0.0833311 0
0.5 0.0416655 0
0.541666 0.0833311 0
0.541667 0.0416655 0
0.5 0.0416655 0
0.5 0 0
0.541667 0.0416655 0
0.541667 0 0
0.666666 0.374994 0
0.708333 0.374994 0
0.666666 0.41666 0
0.708333 0.41666 0
0.666666 0.333327 0
0.708333 0.333328 0
0.666666 0.374994 0
0.708333 0.374994 0
0.708333 0.333328 0
0.749999 0.333328 0
0.708333 0.374994 0
0.749999 0.374995 0
0.708333 0.374994 0
0.749999 0.374995 0
0.708333 0.41666 0
0.749999 0.416661 0
0.708333 0.208329 0
0.708333 0.166663 0
0.75 0.20833 0
0.75 0.166664 0
0.333333 0.333327 0
0.333332 0.374993 0
0.291666 0.333328 0
0.291666 0.374994 0
0.333332 0.374993 0
0.333332 0.41666 0
0.291666 0.374994 0
0.291666 0.41666 0
0.291666 0.374994 0
0.291666 0.41666 0
0.249999 0.374994 0
0.249999 0.416661 0
0.291666 0.333328 0
0.291666 0.374994 0
0.249999 0.333328 0
0.249999 0.374994 0
0.666666 0.166663 0
0.624999 0.166663 0
0.666666 0.124997 0
0.625 0.124997 0
0.624999 0.166663 0
0.583333 0.166663 0
0.625 0.124997 0
0.583333 0.124997 0
0.625 0.124997 0
0.583333 0.124997 0
0.625 0.0833312 0
0.583333 0.0833311 0
0.666666 0.124997 0
0.625 0.124997 0
0.666666 0.0833314 0
0.625 0.0833312 0
0 0.0833333 0
0 0.0416667 0
0.0416666 0.083333 0
0.0416666 0.0416665 0
0 0.0416667 0
0 0 0
0.0416666 0.0416665 0
0.0416667 0 0
0.0416666 0.0416665 0
0.0416667 0 0
0.0833333 0.0416664 0
0.0833333 0 0
0.0416666 0.083333 0
0.0416666 0.0416665 0
0.0833333 0.0833327 0
0.0833333 0.0416664 0
0.791666 0.124998 0
0.75 0.124998 0
0.791666 0.083332 0
0.75 0.0833317 0
0.833333 0.124998 0
0.791666 0.124998 0
0.833333 0.0833322 0
0.791666 0.083332 0
0.833333 0.166665 0
0.791666 0.166664 0
0.833333 0.124998 0
0.791666 0.124998 0
0.791666 0.166664 0
0.75 0.166664 0
0.791666 0.124998 0
0.75 0.124998 0
0.249999 0.291662 0
0.208333 0.291663 0
0.249999 0.249996 0
0.208333 0.249996 0
0.249999 0.333328 0
0.208333 0.333329 0
0.249999 0.291662 0
0.208333 0.291663 0
0.208333 0.333329 0
[...]
POINT_DATA 8868
SCALARS solution_0 double 1
LOOKUP_TABLE default
-0.0296753 -0.00951292 -0.0544555 -0.0234266 -0.0532194 -0.0296753 -0.0882233 -0.0544555 -0.0257099 -0.0121925 -0.0532194 -0.0296753 -0.0121925 -0.00206192 -0.0296753 -0.00951292 -0.0227593 -0.0268734 0.0207572 0.0172257 -0.0191859 -0.0227593 0.0232917 0.0207572 -0.0608794 -0.065251 -0.0191859 -0.0227593 -0.065251 -0.0697386 -0.0227593 -0.0268734 0.0573989 0.05085 0.103011 0.0961816 0.0620084 0.0573989 0.107298 0.103011 0.0172257 0.0124621 0.0620084 0.0573989 0.0124621 0.00643101 0.0573989 0.05085 -0.0268734 -0.031603 0.0172257 0.0124621 -0.0697386 -0.0742792 -0.0268734 -0.031603 -0.0742792 -0.0788306 -0.031603 -0.0369324 -0.031603 -0.0369324 0.0124621 0.00643101 -0.110789 -0.149707 -0.115012 -0.153409 -0.115012 -0.153409 -0.118751 -0.156292 -0.0742792 -0.115012 -0.0788306 -0.118751 -0.0697386 -0.110789 -0.0742792 -0.115012 -0.163588 -0.117688 -0.129125 -0.0882233 -0.209236 -0.163588 -0.172931 -0.129125 -0.224857 -0.182939 -0.209236 -0.163588 -0.182939 -0.137084 -0.163588 -0.117688 0.213861 0.16898 0.212059 0.177596 0.252298 0.213861 0.240785 0.212059 -0.187176 -0.190085 -0.149707 -0.153409 -0.225918 -0.22804 -0.187176 -0.190085 -0.22804 -0.230198 -0.190085 -0.192282 -0.190085 -0.192282 -0.153409 -0.156292 -0.065251 -0.106189 -0.0697386 -0.110789 -0.0608794 -0.101436 -0.065251 -0.106189 -0.101436 -0.140944 -0.106189 -0.145414 -0.106189 -0.145414 -0.110789 -0.149707 -0.229094 -0.147469 -0.170957 -0.0991379 -0.276986 -0.192825 -0.229094 -0.147469 -0.192825 -0.109834 -0.147469 -0.0757149 -0.147469 -0.0757149 -0.0991379 -0.043837 -0.269079 -0.313138 -0.271232 -0.315918 -0.271232 -0.315918 -0.274119 -0.318865 -0.22804 -0.271232 -0.230198 -0.274119 -0.225918 -0.269079 -0.22804 -0.271232 -0.075387 -0.0532194 -0.117688 -0.0882233 -0.0916568 -0.075387 -0.137084 -0.117688 -0.0503345 -0.0394115 -0.0916568 -0.075387 -0.0394115 -0.0257099 -0.075387 -0.0532194 -0.0843368 -0.0766507 -0.123082 -0.111729 -0.0458207 -0.0408821 -0.0843368 -0.0766507 -0.0408821 -0.0334541 -0.0766507 -0.0641941 -0.0766507 -0.0641941 -0.111729 -0.0932943 -0.125984 -0.160892 -0.128305 -0.164854 -0.0912562 -0.125984 -0.0944331 -0.128305 -0.0875939 -0.124304 -0.0912562 -0.125984 -0.124304 -0.159506 -0.125984 -0.160892 0.0232917 0.0207572 0.0662148 0.0648126 0.0207572 0.0172257 0.0648126 0.0620084 0.0648126 0.0620084 0.109306 0.107298 0.0662148 0.0648126 0.109555 0.109306 0.154605 0.153488 0.200982 0.201078 0.15354 0.154605 0.198009 0.200982 0.109555 0.109306 0.15354 0.154605 0.109306 0.107298 0.154605 0.153488 0.119672 0.0699094 0.138532 0.0968494 0.16898 0.119672 0.177596 0.138532 0 0 -0.00575304 0.00413282 -0.00575304 0.00413282 -0.000874422 0.0229931 -0.223799 -0.225918 -0.183809 -0.187176 -0.183809 -0.187176 -0.145414 -0.149707 -0.180446 -0.183809 -0.140944 -0.145414 -0.221789 -0.223799 -0.180446 -0.183809 -0.0467272 -0.0683903 -0.0641941 -0.0932943 -0.0230039 -0.0467272 -0.0334541 -0.0641941 -0.0102138 -0.0258327 -0.0230039 -0.0467272 -0.0258327 -0.0397783 -0.0467272 -0.0683903 0.283379 0.252298 0.263279 0.240785 0.306929 0.283379 0.279704 0.263279 -0.177419 -0.136801 -0.174384 -0.133154 -0.219609 -0.177419 -0.216101 -0.174384 -0.221789 -0.180446 -0.219609 -0.177419 -0.180446 -0.140944 -0.177419 -0.136801 0.123614 0.160852 0.159249 0.200082 0.0895286 0.123614 0.119614 0.159249 0.066644 0.104134 0.065039 0.0990456 0.028328 0.066644 0.0291206 0.065039 0.0268893 0.0669594 0.028328 0.066644 0.0669594 0.106966 0.066644 0.104134 -0.221789 -0.219609 -0.265259 -0.261843 -0.219609 -0.216101 -0.261843 -0.255024 -0.261843 -0.255024 -0.29706 -0.28363 -0.265259 -0.261843 -0.30532 -0.29706 0.0867835 0.132547 0.0961816 0.142738 0.074891 0.118969 0.0867835 0.132547 0.118969 0.164784 0.132547 0.180076 0.132547 0.180076 0.142738 0.19099 -0.0024474 0.000579243 -0.0121925 -0.00206192 -0.00679266 -0.0024474 -0.0257099 -0.0121925 0 0 -0.00679266 -0.0024474 0 0 -0.0024474 0.000579243 -0.000874422 0.0229931 0.0266097 0.056227 0.0266097 0.056227 0.0699094 0.0968494 -0.0960115 0 -0.0842785 0 -0.182435 -0.0960115 -0.16632 -0.0842785 -0.188877 -0.100261 -0.182435 -0.0960115 -0.100261 0 -0.0960115 0 -0.195701 -0.19932 -0.159506 -0.160892 -0.237006 -0.243456 -0.195701 -0.19932 -0.243456 -0.251114 -0.19932 -0.206464 -0.19932 -0.206464 -0.160892 -0.164854 -0.299603 -0.229094 -0.244174 -0.170957 -0.216101 -0.174384 -0.208913 -0.169819 -0.174384 -0.133154 -0.169819 -0.129261 -0.169819 -0.129261 -0.160786 -0.123082 -0.208913 -0.169819 -0.194402 -0.160786 -0.276986 -0.310581 -0.192825 -0.230191 -0.310581 -0.330741 -0.230191 -0.256306 -0.230191 -0.256306 -0.141321 -0.16632 -0.192825 -0.230191 -0.109834 -0.141321 0 0 0.000579243 -0.00123718 0 0 -0.00123718 0 -0.00123718 0 0.00288147 0 0.000579243 -0.00123718 -0.00206192 0.00288147 -0.0555747 -0.0991379 -0.0190405 -0.043837 -0.0238932 -0.0555747 -0.00390493 -0.0190405 -0.056012 -0.109365 -0.0238932 -0.0555747 -0.109365 -0.170957 -0.0555747 -0.0991379 -0.218237 -0.184437 -0.224857 -0.182939 -0.194402 -0.169894 -0.218237 -0.184437 -0.169894 -0.136164 -0.184437 -0.143233 -0.184437 -0.143233 -0.182939 -0.137084 0.0568898 0.0895286 0.0811451 0.119614 0.0251964 0.0568898 0.0439605 0.0811451 -0.00188059 0.00165654 0 0 0 -0.00188059 0 0 0 0.00085236 0 -0.00188059 0.00085236 0.00229221 -0.00188059 0.00165654 -0.173957 -0.244174 -0.109365 -0.170957 -0.1022 -0.173957 -0.056012 -0.109365 -0.156075 -0.236475 -0.1022 -0.173957 -0.216105 -0.17321 -0.206464 -0.164854 -0.0562189 -0.0503345 -0.0990632 -0.0916568 -0.0990632 -0.0916568 -0.143233 -0.137084 -0.0967295 -0.0990632 -0.136164 -0.143233 -0.0562281 -0.0562189 -0.0967295 -0.0990632 -0.144009 -0.111729 -0.118355 -0.0932943 -0.169894 -0.144009 -0.136164 -0.118355 -0.194402 -0.160786 -0.169894 -0.144009 -0.160786 -0.123082 -0.144009 -0.111729 0.216498 0.240785 0.196815 0.212059 0.196815 0.212059 0.171947 0.177596 0.171588 0.196815 0.154925 0.171947 0.18378 0.216498 0.171588 0.196815 -0.0503488 -0.0858533 -0.0397783 -0.0683903 -0.0562281 -0.0967295 -0.0503488 -0.0858533 -0.0967295 -0.136164 -0.0858533 -0.118355 -0.0858533 -0.118355 -0.0683903 -0.0932943 0.0990456 0.129749 0.0905246 0.115234 0.129749 0.154925 0.115234 0.133548 0.115234 0.133548 0.0966983 0.108478 0.0905246 0.115234 0.077722 0.0966983 -0.124304 -0.121903 -0.159506 -0.158264 -0.0875939 -0.083332 -0.124304 -0.121903 -0.083332 -0.0788306 -0.121903 -0.118751 -0.121903 -0.118751 -0.158264 -0.156292 -0.0181764 -0.0157902 -0.0562189 -0.0503345 -0.0169183 -0.0181764 -0.0562281 -0.0562189 0 0 -0.0169183 -0.0181764 0 0 -0.0181764 -0.0157902 0.142521 0.138532 0.109049 0.0968494 0.133548 0.142521 0.108478 0.109049 0.154925 0.171947 0.133548 0.142521 0.171947 0.177596 0.142521 0.138532 -0.0494875 -0.0458207 -0.0890523 -0.0843368 -0.0890523 -0.0843368 -0.129261 -0.123082 -0.0928436 -0.0890523 -0.133154 -0.129261 -0.0529572 -0.0494875 -0.0928436 -0.0890523 -0.0157902 -0.0116545 -0.0503345 -0.0394115 0 0 -0.0157902 -0.0116545 0 0 -0.0116545 -0.00679266 -0.0116545 -0.00679266 -0.0394115 -0.0257099 -0.208913 -0.194402 -0.241817 -0.218237 -0.241817 -0.218237 -0.259182 -0.224857 -0.255024 -0.241817 -0.28363 -0.259182 -0.216101 -0.208913 -0.255024 -0.241817 0.0605816 0.0439605 0.101877 0.0811451 0.101877 0.0811451 0.144722 0.119614 0.118969 0.101877 0.164784 0.144722 0.074891 0.0605816 0.118969 0.101877 0.0239006 0.0269459 0.0448809 0.0542028 0.0448809 0.0542028 0.0624471 0.077722 0.241327 0.279704 0.231144 0.263279 0.231144 0.263279 0.216498 0.240785 0.192338 0.231144 0.18378 0.216498 0.198009 0.241327 0.192338 0.231144 -0.0994092 -0.0944331 -0.133988 -0.128305 -0.133988 -0.128305 -0.17321 -0.164854 -0.109179 -0.0771172 -0.0994092 -0.0671784 -0.0771172 -0.0479265 -0.0671784 -0.0361951 -0.0671784 -0.0361951 -0.0609898 -0.0271239 -0.0994092 -0.0671784 -0.0944331 -0.0609898 -0.109834 -0.0461301 -0.0757149 -0.0261029 -0.0461301 0 -0.0261029 0 -0.0261029 0 -0.00989251 0 -0.0757149 -0.0261029 -0.043837 -0.00989251 -0.00390493 -0.0190405 0.00493555 0.000499825 -0.0190405 -0.043837 0.000499825 -0.00989251 0.000499825 -0.00989251 0 0 0.00493555 0.000499825 0 0 -0.172947 -0.152655 -0.0869016 -0.0723724 -0.152655 -0.126471 -0.0723724 -0.055745 -0.0723724 -0.055745 0 0 -0.0869016 -0.0723724 0 0 0.198009 0.200982 0.241327 0.247376 0.200982 0.201078 0.247376 0.249423 0.247376 0.249423 0.29032 0.295391 0.241327 0.247376 0.279704 0.29032 0.0323366 0.0207411 0.074891 0.0605816 -0.00895688 -0.0178669 0.0323366 0.0207411 -0.0178669 -0.0271239 0.0207411 0.00789751 0.0207411 0.00789751 0.0605816 0.0439605 -0.250699 -0.209236 -0.215589 -0.172931 -0.285642 -0.250699 -0.2542 -0.215589 -0.28363 -0.259182 -0.285642 -0.250699 -0.259182 -0.224857 -0.250699 -0.209236 -0.0057787 0.0251964 0.00789751 0.0439605 -0.0361951 -0.0057787 -0.0271239 0.00789751 -0.0461301 -0.0666931 0 0 -0.109834 -0.141321 -0.0461301 -0.0666931 -0.141321 -0.16632 -0.0666931 -0.0842785 -0.0666931 -0.0842785 0 0 -0.056738 -0.0529572 -0.0968914 -0.0928436 -0.0968914 -0.0928436 -0.136801 -0.133154 -0.101436 -0.0968914 -0.140944 -0.136801 -0.0608794 -0.056738 -0.101436 -0.0968914 -0.042789 -0.00076591 -0.0369324 0.00643101 -0.083332 -0.042789 -0.0788306 -0.0369324 -0.0875939 -0.0490151 -0.083332 -0.042789 -0.0490151 -0.00895688 -0.042789 -0.00076591 0.00470597 0.00493555 0 0 0.00165654 0.00470597 0 0 0.00229221 0.00224454 0.00165654 0.00470597 0.00224454 -0.00390493 0.00470597 0.00493555 -0.274855 -0.188877 -0.270895 -0.182435 -0.270895 -0.182435 -0.256306 -0.16632 -0.232862 -0.193894 -0.230198 -0.192282 -0.237006 -0.195701 -0.232862 -0.193894 -0.195701 -0.159506 -0.193894 -0.158264 -0.193894 -0.158264 -0.192282 -0.156292 -0.0608794 -0.0191859 -0.056738 -0.0160049 -0.0191859 0.0232917 -0.0160049 0.0252205 -0.0160049 0.0252205 -0.0130911 0.0268893 -0.056738 -0.0160049 -0.0529572 -0.0130911 -0.0783944 -0.156075 -0.0440246 -0.1022 -0.0440246 -0.1022 -0.0205315 -0.056012 -0.278085 -0.274119 -0.322043 -0.318865 -0.283422 -0.278085 -0.32385 -0.322043 -0.237006 -0.232862 -0.283422 -0.278085 -0.232862 -0.230198 -0.278085 -0.274119 0.0662148 0.109555 0.066784 0.10866 0.066784 0.10866 0.0669594 0.106966 0.0252205 0.066784 0.0268893 0.0669594 0.0232917 0.0662148 0.0252205 0.066784 -0.0490151 -0.055272 -0.00895688 -0.0178669 -0.0875939 -0.0912562 -0.0490151 -0.055272 -0.0912562 -0.0944331 -0.055272 -0.0609898 -0.055272 -0.0609898 -0.0178669 -0.0271239 -0.223799 -0.267276 -0.225918 -0.269079 -0.221789 -0.265259 -0.223799 -0.267276 -0.265259 -0.30532 -0.267276 -0.310016 -0.267276 -0.310016 -0.269079 -0.313138 0.065039 0.0990456 0.0610646 0.0905246 0.0610646 0.0905246 0.0542028 0.077722 0.0286639 0.0610646 0.0269459 0.0542028 0.0291206 0.065039 0.0286639 0.0610646 0.15354 0.198009 0.150768 0.192338 0.150768 0.192338 0.146381 0.18378 0.10866 0.150768 0.106966 0.146381 0.109555 0.15354 0.10866 0.150768 -0.00895688 0.0323366 -0.00076591 0.0424396 0.0323366 0.074891 0.0424396 0.0867835 0.0424396 0.0867835 0.05085 0.0961816 -0.00076591 0.0424396 0.00643101 0.05085 -0.237006 -0.283422 -0.243456 -0.288544 0.000880712 0.000305776 0.00085236 0.00229221 0 0.000880712 0 0.00085236 0 3.11267e-05 0 0.000880712 3.11267e-05 -0.00447199 0.000880712 0.000305776 0.107298 0.103011 0.153488 0.149655 0.103011 0.0961816 0.149655 0.142738 0.149655 0.142738 0.197876 0.19099 0.153488 0.149655 0.201078 0.197876 0.146381 0.18378 0.139757 0.171588 0.139757 0.171588 0.129749 0.154925 0.104134 0.139757 0.0990456 0.129749 0.106966 0.146381 0.104134 0.139757 0.306929 0.279704 0.323111 0.29032 0.323111 0.29032 0.332217 0.295391 -0.00553126 0.0286639 -0.0027092 0.0269459 -0.0408821 -0.00553126 -0.0334541 -0.0027092 -0.0458207 -0.00794709 -0.0408821 -0.00553126 -0.00794709 0.0291206 -0.00553126 0.0286639 -0.0529572 -0.0130911 -0.0494875 -0.0104054 -0.0130911 0.0268893 -0.0104054 0.028328 -0.0104054 0.028328 -0.00794709 0.0291206 -0.0494875 -0.0104054 -0.0458207 -0.00794709 -0.00641095 -0.0238932 0.00224454 -0.00390493 0.000305776 -0.00641095 0.00229221 0.00224454 -0.00447199 -0.0205315 0.000305776 -0.00641095 -0.0205315 -0.056012 -0.00641095 -0.0238932 -0.172947 -0.0869016 -0.185645 -0.0968377 -0.0869016 0 -0.0968377 0 -0.0968377 0 -0.100261 0 -0.185645 -0.0968377 -0.188877 -0.100261 0.24725 0.240564 0.294898 0.288672 0.249423 0.24725 0.295391 0.294898 0.201078 0.197876 0.249423 0.24725 0.197876 0.19099 0.24725 0.240564 -0.0435225 -0.0234266 -0.0114196 -0.00201378 -0.0114196 -0.00201378 0 0 -0.0240184 -0.0114196 0 0 -0.0688084 -0.0435225 -0.0240184 -0.0114196 -0.126471 -0.0973932 -0.055745 -0.0391113 -0.0973932 -0.0688084 -0.0391113 -0.0240184 -0.0391113 -0.0240184 0 0 -0.055745 -0.0391113 0 0 0.228927 0.276392 0.240564 0.288672 0.180076 0.228927 0.19099 0.240564 0.164784 0.21178 0.180076 0.228927 0.21178 0.257859 0.228927 0.276392 -0.2542 -0.215589 -0.19746 -0.161058 -0.215589 -0.172931 -0.161058 -0.12269 -0.161058 -0.12269 -0.0973932 -0.0688084 -0.19746 -0.161058 -0.126471 -0.0973932 -0.28584 -0.2542 -0.228922 -0.19746 -0.228922 -0.19746 -0.152655 -0.126471 -0.253497 -0.228922 -0.172947 -0.152655 -0.310863 -0.28584 -0.253497 -0.228922 0.00541539 0.00110431 0.0206059 0.0239006 -0.0102138 -0.0230039 0.00541539 0.00110431 -0.0230039 -0.0334541 0.00110431 -0.0027092 0.00110431 -0.0027092 0.0239006 0.0269459 -0.253497 -0.172947 -0.268427 -0.185645 -0.268427 -0.185645 -0.274855 -0.188877 -0.00206192 0.00288147 -0.00951292 0.00311314 0.00288147 0 0.00311314 0 0.00311314 0 -0.00201378 0 -0.00951292 0.00311314 -0.0234266 -0.00201378 -0.000977714 -0.0122159 3.11267e-05 -0.00447199 0 -0.000977714 0 3.11267e-05 0.188657 0.159249 0.232437 0.200082 0.21178 0.188657 0.257859 0.232437 0.164784 0.144722 0.21178 0.188657 0.144722 0.119614 0.188657 0.159249 0.0428847 0.0778057 0.0361608 0.0723376 0.0778057 0.108478 0.0723376 0.109049 0.0723376 0.109049 0.056227 0.0968494 0.0361608 0.0723376 0.0229931 0.056227 0.318522 0.329907 0.276392 0.288672 0.0136714 0.045079 0.0125919 0.0428847 0 0.0136714 0 0.0125919 -0.0860615 -0.0544555 -0.0435225 -0.0234266 -0.12269 -0.0860615 -0.0688084 -0.0435225 -0.172931 -0.129125 -0.12269 -0.0860615 -0.129125 -0.0882233 -0.0860615 -0.0544555 0.332217 0.295391 0.334457 0.294898 0.334457 0.294898 0.329907 0.288672 0 0.0125919 0 0.00887925 0.0125919 0.0428847 0.00887925 0.0361608 0.00887925 0.0361608 0.00413282 0.0229931 0 0.00887925 0 0.00413282 0.248502 0.22542 0.251648 0.231219 0.22542 0.200487 0.231219 0.208411 0.251648 0.231219 0.252298 0.23308 0.231219 0.208411 0.23308 0.213861 0.200487 0.173777 0.208411 0.184447 0.173777 0.145633 0.184447 0.15851 0.208411 0.184447 0.213861 0.191421 0.184447 0.15851 0.191421 0.16898 0.0413367 0.0542356 0.0628987 0.0770763 0.0542356 0.0699649 0.0770763 0.0939029 0.0628987 0.0770763 0.0838836 0.0994036 0.0770763 0.0939029 0.0994036 0.117031 0.0200051 0.0303039 0.0382655 0.0501874 0.0303039 0.0413367 0.0501874 0.0628987 0.0382655 0.0501874 0.0560901 0.0696354 0.0501874 0.0628987 0.0696354 0.0838836 0.145633 0.116487 0.15851 0.131988 0.116487 0.0868243 0.131988 0.10451 0.15851 0.131988 0.16898 0.144326 0.131988 0.10451 0.144326 0.119672 0.0868243 0.0575838 0.10451 0.0774194 0.0575838 0.0296135 0.0774194 0.0513519 0.10451 0.0774194 0.119672 0.0947907 0.0774194 0.0513519 0.0947907 0.0699094 -0.0279391 -0.0135823 -0.038807 -0.0192357 -0.0135823 -0.00575304 -0.0192357 -0.00331373 -0.038807 -0.0192357 -0.0400309 -0.0168602 -0.0192357 -0.00331373 -0.0168602 -0.000874422 0 0 -0.0100484 -0.00460911 0 0 -0.00460911 -0.00287652 -0.0100484 -0.00460911 -0.0279391 -0.0135823 -0.00460911 -0.00287652 -0.0135823 -0.00575304 0.319937 0.305179 0.314398 0.301917 0.305179 0.288425 0.301917 0.287082 0.314398 0.301917 0.306929 0.295154 0.301917 0.287082 0.295154 0.283379 0.288425 0.269463 0.287082 0.270592 0.269463 0.248502 0.270592 0.251648 0.287082 0.270592 0.283379 0.267839 0.270592 0.251648 0.267839 0.252298 -0.254579 -0.254837 -0.26491 -0.272007 -0.254837 -0.251114 -0.272007 -0.27262 -0.26491 -0.272007 -0.2658 -0.281354 -0.272007 -0.27262 -0.281354 -0.288639 -0.2658 -0.281354 -0.256268 -0.280135 -0.281354 -0.288639 -0.280135 -0.295517 -0.256268 -0.280135 -0.236475 -0.267757 -0.280135 -0.295517 -0.267757 -0.290905 -0.20537 -0.240393 -0.182795 -0.223193 -0.240393 -0.2658 -0.223193 -0.256268 -0.182795 -0.223193 -0.156075 -0.196275 -0.223193 -0.256268 -0.196275 -0.236475 -0.227895 -0.246736 -0.220739 -0.248372 -0.246736 -0.254579 -0.248372 -0.26491 -0.220739 -0.248372 -0.20537 -0.240393 -0.248372 -0.26491 -0.240393 -0.2658 0.0560901 0.0696354 0.0732239 0.0885291 0.0696354 0.0838836 0.0885291 0.104358 0.0732239 0.0885291 0.0895286 0.106572 0.0885291 0.104358 0.106572 0.123614 0.0838836 0.0994036 0.104358 0.121056 0.0994036 0.117031 0.121056 0.139475 0.104358 0.121056 0.123614 0.142233 0.121056 0.139475 0.142233 0.160852 -0.0939488 -0.0797127 -0.0851631 -0.0700979 -0.0797127 -0.0662226 -0.0700979 -0.0562433 -0.0851631 -0.0700979 -0.0771172 -0.0625218 -0.0700979 -0.0562433 -0.0625218 -0.0479265 -0.12409 -0.108874 -0.117763 -0.100879 -0.108874 -0.0939488 -0.100879 -0.0851631 -0.117763 -0.100879 -0.109179 -0.0931479 -0.100879 -0.0851631 -0.0931479 -0.0771172 -0.0168129 0.00730921 0.00433546 0.0272952 0.00730921 0.0266097 0.0272952 0.0482596 0.00433546 0.0272952 0.0296135 0.0513519 0.0272952 0.0482596 0.0513519 0.0699094 -0.0400309 -0.0168602 -0.032173 -0.00844024 -0.0168602 -0.000874422 -0.00844024 0.0128676 -0.032173 -0.00844024 -0.0168129 0.00730921 -0.00844024 0.0128676 0.00730921 0.0266097 -0.0169183 -0.0365732 -0.0194961 -0.0350389 -0.0365732 -0.0562281 -0.0350389 -0.0532884 -0.0194961 -0.0350389 -0.0177358 -0.0332731 -0.0350389 -0.0532884 -0.0332731 -0.0503488 -0.0177358 -0.0332731 -0.0155987 -0.0299129 -0.0332731 -0.0503488 -0.0299129 -0.0450635 -0.0155987 -0.0299129 -0.0129999 -0.0257554 -0.0299129 -0.0450635 -0.0257554 -0.0397783 0 -0.00528711 0 -0.00439406 -0.00528711 -0.0177358 -0.00439406 -0.0155987 0 -0.00439406 0 -0.0034651 -0.00439406 -0.0155987 -0.0034651 -0.0129999 0 -0.00845917 0 -0.00532505 -0.00845917 -0.0169183 -0.00532505 -0.0194961 0 -0.00532505 0 -0.00528711 -0.00532505 -0.0194961 -0.00528711 -0.0177358 -0.316586 -0.314049 -0.306836 -0.297458 -0.314049 -0.299603 -0.297458 -0.271889 -0.306836 -0.297458 -0.290905 -0.273304 -0.297458 -0.271889 -0.273304 -0.244174 -0.32385 -0.332171 -0.321562 -0.325225 -0.332171 -0.329052 -0.325225 -0.316885 -0.321562 -0.325225 -0.316586 -0.314049 -0.325225 -0.316885 -0.314049 -0.299603 -0.0417261 -0.0306393 -0.0304594 -0.0183181 -0.0306393 -0.0198802 -0.0183181 -0.00670348 -0.0304594 -0.0183181 -0.0210136 -0.00804824 -0.0183181 -0.00670348 -0.00804824 0.00476486 -0.0662226 -0.0536066 -0.0562433 -0.0430237 -0.0536066 -0.0417261 -0.0430237 -0.0304594 -0.0562433 -0.0430237 -0.0479265 -0.034515 -0.0430237 -0.0304594 -0.034515 -0.0210136 -0.156049 -0.196971 -0.138843 -0.182966 -0.196971 -0.227895 -0.182966 -0.220739 -0.138843 -0.182966 -0.118901 -0.16325 -0.182966 -0.220739 -0.16325 -0.20537 -0.06832 -0.110715 -0.0560508 -0.0944728 -0.110715 -0.156049 -0.0944728 -0.138843 -0.0560508 -0.0944728 -0.0444881 -0.077804 -0.0944728 -0.138843 -0.077804 -0.118901 0.208608 0.227545 0.182324 0.202568 0.227545 0.244918 0.202568 0.220999 0.182324 0.202568 0.160852 0.180467 0.202568 0.220999 0.180467 0.200082 0.166659 0.188286 0.138584 0.160971 0.188286 0.208608 0.160971 0.182324 0.138584 0.160971 0.117031 0.139475 0.160971 0.182324 0.139475 0.160852 0.00476486 0.0174739 0.0152595 0.0296214 0.0174739 0.0301941 0.0296214 0.0438594 0.0152595 0.0296214 0.0251964 0.0410431 0.0296214 0.0438594 0.0410431 0.0568898 0.0301941 0.0430067 0.0438594 0.0585082 0.0430067 0.0560901 0.0585082 0.0732239 0.0438594 0.0585082 0.0568898 0.0732092 0.0585082 0.0732239 0.0732092 0.0895286 -0.0339339 -0.0273718 -0.0169212 -0.00841044 -0.0273718 -0.0207317 -0.00841044 0.000167676 -0.0169212 -0.00841044 0.000305523 0.0100726 -0.00841044 0.000167676 0.0100726 0.0200051 0.000305523 0.0100726 0.0158094 0.0269833 0.0100726 0.0200051 0.0269833 0.0382655 0.0158094 0.0269833 0.030