# vtk DataFile Version 3.0
#This file was generated by the deal.II library on 2020/11/19 at 14:52:10
ASCII
DATASET UNSTRUCTURED_GRID

POINTS 2304 double
0.125 0.124999 0
0.125 0.0833324 0
0.166666 0.124998 0
0.166667 0.0833322 0
0.125 0.166665 0
0.125 0.124999 0
0.166666 0.166664 0
0.166666 0.124998 0
0.0833332 0.166666 0
0.0833332 0.124999 0
0.125 0.166665 0
0.125 0.124999 0
0.0833332 0.124999 0
0.0833333 0.0833327 0
0.125 0.124999 0
0.125 0.0833324 0
0.458332 0.541659 0
0.499999 0.541659 0
0.458332 0.583326 0
0.499999 0.583326 0
0.416666 0.541659 0
0.458332 0.541659 0
0.416666 0.583326 0
0.458332 0.583326 0
0.416666 0.499992 0
0.458332 0.499992 0
0.416666 0.541659 0
0.458332 0.541659 0
0.458332 0.499992 0
0.499999 0.499992 0
0.458332 0.541659 0
0.499999 0.541659 0
0.541666 0.624993 0
0.583332 0.624993 0
0.541666 0.66666 0
0.583332 0.66666 0
0.499999 0.624993 0
0.541666 0.624993 0
0.499999 0.66666 0
0.541666 0.66666 0
0.499999 0.583326 0
0.541666 0.583326 0
0.499999 0.624993 0
0.541666 0.624993 0
0.541666 0.583326 0
0.583332 0.583326 0
0.541666 0.624993 0
0.583332 0.624993 0
0.499999 0.541659 0
0.541666 0.541659 0
0.499999 0.583326 0
0.541666 0.583326 0
0.499999 0.499992 0
0.541666 0.499992 0
0.499999 0.541659 0
0.541666 0.541659 0
0.541666 0.499992 0
0.583332 0.499992 0
0.541666 0.541659 0
0.583332 0.541659 0
0.541666 0.541659 0
0.583332 0.541659 0
0.541666 0.583326 0
0.583332 0.583326 0
0.499999 0.458326 0
0.499999 0.416659 0
0.541666 0.458326 0
0.541666 0.416659 0
0.541666 0.458326 0
0.541666 0.416659 0
0.583332 0.458326 0
0.583332 0.416659 0
0.541666 0.499992 0
0.541666 0.458326 0
0.583332 0.499992 0
0.583332 0.458326 0
0.499999 0.499992 0
0.499999 0.458326 0
0.541666 0.499992 0
0.541666 0.458326 0
0.208333 0.20833 0
0.166666 0.208331 0
0.208333 0.166664 0
0.166666 0.166664 0
0.25 0.20833 0
0.208333 0.20833 0
0.25 0.166664 0
0.208333 0.166664 0
0.249999 0.249996 0
0.208333 0.249996 0
0.25 0.20833 0
0.208333 0.20833 0
0.208333 0.249996 0
0.166666 0.249997 0
0.208333 0.20833 0
0.166666 0.208331 0
0.291666 0.874997 0
0.25 0.874998 0
0.291666 0.83333 0
0.25 0.83333 0
0.333333 0.874997 0
0.291666 0.874997 0
0.333333 0.83333 0
0.291666 0.83333 0
0.333333 0.916665 0
0.291666 0.916665 0
0.333333 0.874997 0
0.291666 0.874997 0
0.291666 0.916665 0
0.25 0.916665 0
0.291666 0.874997 0
0.25 0.874998 0
0.499999 0.374993 0
0.541666 0.374993 0
0.499999 0.416659 0
0.541666 0.416659 0
0.499999 0.333326 0
0.541666 0.333326 0
0.499999 0.374993 0
0.541666 0.374993 0
0.541666 0.333326 0
0.583332 0.333327 0
0.541666 0.374993 0
0.583332 0.374993 0
0.541666 0.374993 0
0.583332 0.374993 0
0.541666 0.416659 0
0.583332 0.416659 0
0.458332 0.499992 0
0.458332 0.458326 0
0.499999 0.499992 0
0.499999 0.458326 0
0.416666 0.499992 0
0.416666 0.458326 0
0.458332 0.499992 0
0.458332 0.458326 0
0.416666 0.458326 0
0.416666 0.416659 0
0.458332 0.458326 0
0.458332 0.416659 0
0.458332 0.458326 0
0.458332 0.416659 0
0.499999 0.458326 0
0.499999 0.416659 0
0.708333 0.166663 0
0.708333 0.124997 0
0.75 0.166664 0
0.75 0.124998 0
0.666666 0.166663 0
0.666666 0.124997 0
0.708333 0.166663 0
0.708333 0.124997 0
0.666666 0.124997 0
0.666666 0.0833314 0
0.708333 0.124997 0
0.708333 0.0833316 0
0.708333 0.124997 0
0.708333 0.0833316 0
0.75 0.124998 0
0.75 0.0833317 0
0.499999 0.29166 0
0.499999 0.249994 0
0.541666 0.29166 0
0.541666 0.249994 0
0.541666 0.29166 0
0.541666 0.249994 0
0.583333 0.29166 0
0.583333 0.249994 0
0.541666 0.333326 0
0.541666 0.29166 0
0.583332 0.333327 0
0.583333 0.29166 0
0.499999 0.333326 0
0.499999 0.29166 0
0.541666 0.333326 0
0.541666 0.29166 0
0.125 0.208331 0
0.125 0.166665 0
0.166666 0.208331 0
0.166666 0.166664 0
0.125 0.249998 0
0.125 0.208331 0
0.166666 0.249997 0
0.166666 0.208331 0
0.0833331 0.249998 0
0.0833331 0.208332 0
0.125 0.249998 0
0.125 0.208331 0
0.0833331 0.208332 0
0.0833332 0.166666 0
0.125 0.208331 0
0.125 0.166665 0
0.875 0.791665 0
0.875 0.833332 0
0.833333 0.791664 0
0.833333 0.833331 0
0.875 0.749998 0
0.875 0.791665 0
0.833333 0.749997 0
0.833333 0.791664 0
0.916666 0.749998 0
0.916666 0.791665 0
0.875 0.749998 0
0.875 0.791665 0
0.916666 0.791665 0
0.916667 0.833332 0
0.875 0.791665 0
0.875 0.833332 0
0.249999 0.458327 0
0.208333 0.458328 0
0.249999 0.416661 0
0.208333 0.416662 0
0.249999 0.499994 0
0.208333 0.499995 0
0.249999 0.458327 0
0.208333 0.458328 0
0.208333 0.499995 0
0.166666 0.499996 0
0.208333 0.458328 0
0.166666 0.458329 0
0.208333 0.458328 0
0.166666 0.458329 0
0.208333 0.416662 0
0.166666 0.416662 0
0.708333 0.458327 0
0.708333 0.41666 0
0.749999 0.458328 0
0.749999 0.416661 0
0.708332 0.499994 0
0.708333 0.458327 0
0.749999 0.499994 0
0.749999 0.458328 0
0.666666 0.499993 0
0.666666 0.458327 0
0.708332 0.499994 0
0.708333 0.458327 0
0.666666 0.458327 0
0.666666 0.41666 0
0.708333 0.458327 0
0.708333 0.41666 0
0.416666 0.583326 0
0.458332 0.583326 0
0.416666 0.624993 0
0.458332 0.624993 0
0.458332 0.583326 0
0.499999 0.583326 0
0.458332 0.624993 0
0.499999 0.624993 0
0.458332 0.624993 0
0.499999 0.624993 0
0.458332 0.66666 0
0.499999 0.66666 0
0.416666 0.624993 0
0.458332 0.624993 0
0.416666 0.66666 0
0.458332 0.66666 0
0.458333 0.708327 0
0.499999 0.708327 0
0.458333 0.749994 0
0.499999 0.749994 0
0.416666 0.708327 0
0.458333 0.708327 0
0.416666 0.749994 0
0.458333 0.749994 0
0.416666 0.66666 0
0.458332 0.66666 0
0.416666 0.708327 0
0.458333 0.708327 0
0.458332 0.66666 0
0.499999 0.66666 0
0.458333 0.708327 0
0.499999 0.708327 0
0.416667 0.958332 0
0.458333 0.958332 0
0.416667 1 0
0.458333 1 0
0.416666 0.916665 0
0.458333 0.916665 0
0.416667 0.958332 0
0.458333 0.958332 0
0.458333 0.916665 0
0.5 0.916665 0
0.458333 0.958332 0
0.5 0.958332 0
0.458333 0.958332 0
0.5 0.958332 0
0.458333 1 0
0.5 1 0
0.25 0.916665 0
0.208333 0.916665 0
0.25 0.874998 0
0.208333 0.874998 0
0.208333 0.916665 0
0.166667 0.916666 0
0.208333 0.874998 0
0.166666 0.874998 0
0.208333 0.874998 0
0.166666 0.874998 0
0.208333 0.833331 0
0.166666 0.833331 0
0.25 0.874998 0
0.208333 0.874998 0
0.25 0.83333 0
0.208333 0.833331 0
0.0416666 0.916666 0
0.0416666 0.875 0
0.0833333 0.916666 0
0.0833332 0.874999 0
0 0.916667 0
0 0.875 0
0.0416666 0.916666 0
0.0416666 0.875 0
0 0.875 0
0 0.833333 0
0.0416666 0.875 0
0.0416666 0.833333 0
0.0416666 0.875 0
0.0416666 0.833333 0
0.0833332 0.874999 0
0.0833332 0.833332 0
0.458332 0.333326 0
0.499999 0.333326 0
0.458332 0.374993 0
0.499999 0.374993 0
0.458332 0.374993 0
0.499999 0.374993 0
0.458332 0.416659 0
0.499999 0.416659 0
0.416666 0.374993 0
0.458332 0.374993 0
0.416666 0.416659 0
0.458332 0.416659 0
0.416666 0.333327 0
0.458332 0.333326 0
0.416666 0.374993 0
0.458332 0.374993 0
0.125 0.45833 0
0.125 0.416663 0
0.166666 0.458329 0
0.166666 0.416662 0
0.125 0.499997 0
0.125 0.45833 0
0.166666 0.499996 0
0.166666 0.458329 0
0.083333 0.499998 0
0.083333 0.458331 0
0.125 0.499997 0
0.125 0.45833 0
0.083333 0.458331 0
0.083333 0.416664 0
0.125 0.45833 0
0.125 0.416663 0
0.375 0.874997 0
0.333333 0.874997 0
0.374999 0.83333 0
0.333333 0.83333 0
0.416666 0.874997 0
0.375 0.874997 0
0.416666 0.833329 0
0.374999 0.83333 0
0.416666 0.916665 0
0.375 0.916665 0
0.416666 0.874997 0
0.375 0.874997 0
0.375 0.916665 0
0.333333 0.916665 0
0.375 0.874997 0
0.333333 0.874997 0
0.374999 0.374993 0
0.374999 0.416659 0
0.333332 0.374993 0
0.333332 0.41666 0
0.374999 0.333327 0
0.374999 0.374993 0
0.333333 0.333327 0
0.333332 0.374993 0
0.416666 0.333327 0
0.416666 0.374993 0
0.374999 0.333327 0
0.374999 0.374993 0
0.416666 0.374993 0
0.416666 0.416659 0
0.374999 0.374993 0
0.374999 0.416659 0
0.791666 0.333329 0
0.749999 0.333328 0
0.791666 0.291663 0
0.749999 0.291662 0
0.791666 0.291663 0
0.749999 0.291662 0
0.791666 0.249996 0
0.749999 0.249996 0
0.833333 0.291663 0
0.791666 0.291663 0
0.833333 0.249997 0
0.791666 0.249996 0
0.833333 0.33333 0
0.791666 0.333329 0
0.833333 0.291663 0
0.791666 0.291663 0
0.833333 0.749997 0
0.833333 0.791664 0
0.791666 0.749997 0
0.791666 0.791664 0
0.833333 0.791664 0
0.833333 0.833331 0
0.791666 0.791664 0
0.791666 0.833331 0
0.791666 0.791664 0
0.791666 0.833331 0
0.75 0.791663 0
0.75 0.83333 0
0.791666 0.749997 0
0.791666 0.791664 0
0.749999 0.749996 0
0.75 0.791663 0
0.291666 0.624994 0
0.291666 0.666661 0
0.249999 0.624995 0
0.249999 0.666662 0
0.291666 0.583327 0
0.291666 0.624994 0
0.249999 0.583328 0
0.249999 0.624995 0
0.333332 0.583326 0
0.333332 0.624994 0
0.291666 0.583327 0
0.291666 0.624994 0
0.333332 0.624994 0
0.333333 0.666661 0
0.291666 0.624994 0
0.291666 0.666661 0
0.416666 0.333327 0
0.374999 0.333327 0
0.416666 0.29166 0
0.374999 0.291661 0
0.374999 0.333327 0
0.333333 0.333327 0
0.374999 0.291661 0
0.333333 0.291661 0
0.374999 0.291661 0
0.333333 0.291661 0
0.374999 0.249995 0
0.333333 0.249995 0
0.416666 0.29166 0
0.374999 0.291661 0
0.416666 0.249994 0
0.374999 0.249995 0
0.624999 0.66666 0
0.624999 0.708328 0
0.583332 0.66666 0
0.583333 0.708327 0
0.666666 0.666661 0
0.666666 0.708328 0
0.624999 0.66666 0
0.624999 0.708328 0
0.666666 0.708328 0
0.666666 0.749995 0
0.624999 0.708328 0
0.624999 0.749995 0
0.624999 0.708328 0
0.624999 0.749995 0
0.583333 0.708327 0
0.583333 0.749995 0
0.875 0.541664 0
0.875 0.58333 0
0.833333 0.541663 0
0.833333 0.583329 0
0.875 0.499997 0
0.875 0.541664 0
0.833333 0.499996 0
0.833333 0.541663 0
0.916666 0.499998 0
0.916666 0.541665 0
0.875 0.499997 0
0.875 0.541664 0
0.916666 0.541665 0
0.916666 0.583331 0
0.875 0.541664 0
0.875 0.58333 0
0.958333 0.916666 0
0.916667 0.916666 0
0.958333 0.875 0
0.916667 0.874999 0
0.958333 0.875 0
0.916667 0.874999 0
0.958333 0.833333 0
0.916667 0.833332 0
1 0.875 0
0.958333 0.875 0
1 0.833333 0
0.958333 0.833333 0
1 0.916667 0
0.958333 0.916666 0
1 0.875 0
0.958333 0.875 0
0.0416666 0.125 0
0.0416666 0.083333 0
0.0833332 0.124999 0
0.0833333 0.0833327 0
0.0416666 0.166666 0
0.0416666 0.125 0
0.0833332 0.166666 0
0.0833332 0.124999 0
0 0.166667 0
0 0.125 0
0.0416666 0.166666 0
0.0416666 0.125 0
0 0.125 0
0 0.0833333 0
0.0416666 0.125 0
0.0416666 0.083333 0
[...]
POINT_DATA 2304
SCALARS solution_0 double 1
LOOKUP_TABLE default
-0.0170592 -0.00867886 -0.0288571 -0.0158826 -0.0260663 -0.0170592 -0.042239 -0.0288571 -0.0129857 -0.00805774 -0.0260663 -0.0170592 -0.00805774 -0.00375556 -0.0170592 -0.00867886 -0.0177123 -0.0205646 0.0143184 0.0112441 -0.0155653 -0.0177123 0.0163507 0.0143184 -0.0476337 -0.049593 -0.0155653 -0.0177123 -0.049593 -0.0519491 -0.0177123 -0.0205646 0.0397532 0.034244 0.0734287 0.0674934 0.0439653 0.0397532 0.0774932 0.0734287 0.0112441 0.00723417 0.0439653 0.0397532 0.00723417 0.00233826 0.0397532 0.034244 -0.0205646 -0.0241015 0.0112441 0.00723417 -0.0519491 -0.054839 -0.0205646 -0.0241015 -0.054839 -0.0582926 -0.0241015 -0.028274 -0.0241015 -0.028274 0.00723417 0.00233826 -0.0839028 -0.11745 -0.0862013 -0.119616 -0.0862013 -0.119616 -0.0891765 -0.122637 -0.054839 -0.0862013 -0.0582926 -0.0891765 -0.0519491 -0.0839028 -0.054839 -0.0862013 -0.0763134 -0.0540623 -0.0611564 -0.042239 -0.10011 -0.0763134 -0.0820774 -0.0611564 -0.111821 -0.0867668 -0.10011 -0.0763134 -0.0867668 -0.062644 -0.0763134 -0.0540623 0.114611 0.0837535 0.116781 0.0905206 0.143225 0.114611 0.140836 0.116781 0.164556 0.130839 0.143225 0.114611 0.130839 0.0955181 0.114611 0.0837535 -0.152353 -0.155193 -0.11745 -0.119616 -0.18536 -0.1895 -0.152353 -0.155193 -0.1895 -0.193457 -0.155193 -0.158762 -0.155193 -0.158762 -0.119616 -0.122637 -0.049593 -0.0820305 -0.0519491 -0.0839028 -0.0476337 -0.0801776 -0.049593 -0.0820305 -0.0801776 -0.113154 -0.0820305 -0.11555 -0.0820305 -0.11555 -0.0839028 -0.11745 -0.115694 -0.0765755 -0.0870208 -0.0539662 -0.140681 -0.098128 -0.115694 -0.0765755 -0.098128 -0.0603489 -0.0765755 -0.043885 -0.0765755 -0.043885 -0.0539662 -0.0278757 -0.209738 -0.217893 -0.214934 -0.222906 -0.214934 -0.222906 -0.218118 -0.223728 -0.1895 -0.214934 -0.193457 -0.218118 -0.18536 -0.209738 -0.1895 -0.214934 -0.034319 -0.0260663 -0.0540623 -0.042239 -0.0405592 -0.034319 -0.062644 -0.0540623 -0.0213075 -0.0176609 -0.0405592 -0.034319 -0.0176609 -0.0129857 -0.034319 -0.0260663 0.0176493 0.0563218 0.0530664 0.090683 -0.00782718 0.0176493 0.0265572 0.0530664 -0.03807 -0.0244208 -0.00782718 0.0176493 -0.0244208 0.00285559 0.0176493 0.0563218 -0.059301 -0.0486793 -0.0812736 -0.0663534 -0.0351335 -0.0287391 -0.059301 -0.0486793 -0.0287391 -0.0210054 -0.0486793 -0.0364588 -0.0486793 -0.0364588 -0.0663534 -0.0498666 -0.107299 -0.142434 -0.11888 -0.15144 -0.074906 -0.107299 -0.0860769 -0.11888 -0.0675663 -0.0988354 -0.074906 -0.107299 -0.0988354 -0.13364 -0.107299 -0.142434 0.0163507 0.0143184 0.0482325 0.0468438 0.0143184 0.0112441 0.0468438 0.0439653 0.0468438 0.0439653 0.0796521 0.0774932 0.0482325 0.0468438 0.0797246 0.0796521 0.111916 0.111099 0.142236 0.143435 0.109923 0.111916 0.137456 0.142236 0.0797246 0.0796521 0.109923 0.111916 0.0796521 0.0774932 0.111916 0.111099 0.448483 0.474474 1 1 0.223329 0.247277 0.448483 0.474474 0.247277 0.267284 0.474474 0.497048 0.474474 0.497048 1 1 0.0955181 0.0600756 0.0837535 0.0524677 0.0600756 0.026707 0.0524677 0.0233677 0.0524677 0.0233677 0.0636079 0.0381745 0.0837535 0.0524677 0.0905206 0.0636079 -0.0229668 -0.00641521 -0.0186484 -0.0121436 0 0 -0.0229668 -0.00641521 0 0 -0.00641521 -0.000647118 -0.00641521 -0.000647118 -0.0121436 0.00376169 -0.180268 -0.18536 -0.149396 -0.152353 -0.149396 -0.152353 -0.11555 -0.11745 -0.145262 -0.149396 -0.113154 -0.11555 -0.173166 -0.180268 -0.145262 -0.149396 -0.0235411 -0.0329265 -0.0364588 -0.0498666 -0.0125978 -0.0235411 -0.0210054 -0.0364588 -0.00507412 -0.0114644 -0.0125978 -0.0235411 -0.0114644 -0.017001 -0.0235411 -0.0329265 0.168362 0.143225 0.16151 0.140836 0.189221 0.168362 0.177993 0.16151 0.223329 0.195618 0.189221 0.168362 0.195618 0.164556 0.168362 0.143225 -0.138814 -0.109294 -0.129131 -0.10301 -0.163032 -0.138814 -0.149225 -0.129131 -0.173166 -0.145262 -0.163032 -0.138814 -0.145262 -0.113154 -0.138814 -0.109294 -0.166349 -0.189655 -0.149249 -0.183141 -0.149249 -0.183141 -0.12091 -0.159083 -0.105374 -0.149249 -0.0791933 -0.12091 -0.127486 -0.166349 -0.105374 -0.149249 0.0265572 0.0530664 0.0534581 0.081124 0.0530664 0.090683 0.081124 0.11783 0.081124 0.11783 0.105957 0.14107 0.0534581 0.081124 0.0766499 0.105957 0.0418887 0.0657046 0.0368187 0.0570009 0.0157539 0.0418887 0.0140555 0.0368187 0.0169599 0.0457489 0.0157539 0.0418887 0.0457489 0.0727238 0.0418887 0.0657046 -0.173166 -0.163032 -0.191767 -0.177769 -0.163032 -0.149225 -0.177769 -0.160072 -0.177769 -0.160072 -0.179532 -0.159386 -0.191767 -0.177769 -0.19618 -0.179532 0.0596064 0.0928354 0.0674934 0.101585 0.0496545 0.0812521 0.0596064 0.0928354 0.0812521 0.113316 0.0928354 0.126207 0.0928354 0.126207 0.101585 0.135446 -0.0918528 -0.077477 -0.0881723 -0.0638992 -0.102761 -0.0918528 -0.111361 -0.0881723 -0.0668727 -0.0668279 -0.102761 -0.0918528 -0.0668279 -0.0638308 -0.0918528 -0.077477 0.0612573 0.187282 -0.0104654 0.0616721 -0.0104654 0.0616721 -0.0272228 0.00285559 0 -0.0104654 0 -0.0272228 0 0.0612573 0 -0.0104654 -0.00208128 -0.000824714 -0.00805774 -0.00375556 -0.00357786 -0.00208128 -0.0129857 -0.00805774 0 0 -0.00357786 -0.00208128 0 0 -0.00208128 -0.000824714 -0.0121436 0.00376169 0.00050828 0.0169244 0.00050828 0.0169244 0.0233677 0.0381745 -0.00153108 0.00050828 0.026707 0.0233677 -0.0186484 -0.0121436 -0.00153108 0.00050828 -0.0505146 0 -0.0460018 0 -0.0939779 -0.0505146 -0.0867969 -0.0460018 -0.0962183 -0.0515755 -0.0939779 -0.0505146 -0.0515755 0 -0.0505146 0 0.502374 1 0.537852 1 0.254943 0.502374 0.286913 0.537852 0.187282 0.4315 0.254943 0.502374 0.4315 1 0.502374 1 -0.00679785 -0.0232475 -0.00602167 -0.0210784 -0.00602167 -0.0210784 -0.00461123 -0.017001 0 -0.00602167 0 -0.00461123 0 -0.00679785 0 -0.00602167 -0.169802 -0.175819 -0.13364 -0.142434 -0.200213 -0.199219 -0.169802 -0.175819 -0.199219 -0.189655 -0.175819 -0.177515 -0.175819 -0.177515 -0.142434 -0.15144 -0.180848 -0.140681 -0.156032 -0.115694 -0.156032 -0.115694 -0.124176 -0.0870208 -0.188681 -0.156032 -0.159083 -0.124176 -0.208411 -0.180848 -0.188681 -0.156032 -0.149225 -0.129131 -0.13174 -0.115832 -0.129131 -0.10301 -0.115832 -0.0936803 -0.115832 -0.0936803 -0.0992294 -0.0812736 -0.13174 -0.115832 -0.111232 -0.0992294 -0.0638308 -0.0589776 -0.077477 -0.0614948 -0.0589776 -0.0531335 -0.0614948 -0.044874 -0.0614948 -0.044874 -0.0403129 -0.0178737 -0.077477 -0.0614948 -0.0638992 -0.0403129 -0.140681 -0.159796 -0.098128 -0.116242 -0.159796 -0.172157 -0.116242 -0.129372 -0.116242 -0.129372 -0.075213 -0.0867969 -0.098128 -0.116242 -0.0603489 -0.075213 0 0 -0.000824714 -0.000506963 0 0 -0.000506963 0 -0.000506963 0 -0.000774785 0 -0.000824714 -0.000506963 -0.00375556 -0.000774785 -0.0245416 -0.0248472 -0.0589776 -0.0531335 -0.0239375 -0.0245416 -0.0638308 -0.0589776 0 0 -0.0239375 -0.0245416 0 0 -0.0245416 -0.0248472 -0.033155 -0.0539662 -0.0143534 -0.0278757 -0.0166954 -0.033155 -0.00480766 -0.0143534 -0.0331422 -0.0581651 -0.0166954 -0.033155 -0.0581651 -0.0870208 -0.033155 -0.0539662 -0.0789348 -0.127486 -0.059953 -0.105374 -0.059953 -0.105374 -0.0418787 -0.0791933 -0.0242725 -0.059953 -0.0158752 -0.0418787 -0.0345001 -0.0789348 -0.0242725 -0.059953 0.302138 0.30911 0.178793 0.19541 0.178793 0.19541 0.11783 0.14107 0.15651 0.178793 0.090683 0.11783 0.286913 0.302138 0.15651 0.178793 -0.115675 -0.0911241 -0.111821 -0.0867668 -0.111232 -0.0888314 -0.115675 -0.0911241 -0.0888314 -0.0658729 -0.0911241 -0.0667755 -0.0911241 -0.0667755 -0.0867668 -0.062644 0.0290718 0.0534581 0.0493953 0.0766499 0.00559053 0.0290718 0.0231761 0.0493953 -0.0178737 0.00393723 0.00559053 0.0290718 0.00393723 0.0265572 0.0290718 0.0534581 -6.72788e-05 0.0019128 0 0 0 -6.72788e-05 0 0 0 0.000751495 0 -6.72788e-05 0.000751495 0.00147581 -6.72788e-05 0.0019128 0 -0.0229668 0 0.112633 -0.0229668 -0.0186484 0.112633 0.153577 0.112633 0.153577 1 1 0 0.112633 1 1 -0.0465042 -0.03807 -0.0274811 -0.00782718 -0.0274811 -0.00782718 0.00393723 0.0265572 -0.044874 -0.0274811 -0.0178737 0.00393723 -0.0531335 -0.0465042 -0.044874 -0.0274811 -0.12091 -0.159083 -0.0884635 -0.124176 -0.0884635 -0.124176 -0.0581651 -0.0870208 -0.0541582 -0.0884635 -0.0331422 -0.0581651 -0.0791933 -0.12091 -0.0541582 -0.0884635 -0.167867 -0.154252 -0.177515 -0.15144 -0.166349 -0.167867 -0.189655 -0.177515 -0.127486 -0.140274 -0.166349 -0.167867 -0.140274 -0.140985 -0.167867 -0.154252 -0.0232968 -0.0213075 -0.0438342 -0.0405592 -0.0438342 -0.0405592 -0.0667755 -0.062644 -0.0436167 -0.0438342 -0.0658729 -0.0667755 -0.0232475 -0.0232968 -0.0436167 -0.0438342 -0.0802228 -0.0663534 -0.0600178 -0.0498666 -0.0888314 -0.0802228 -0.0658729 -0.0600178 -0.111232 -0.0992294 -0.0888314 -0.0802228 -0.0992294 -0.0812736 -0.0802228 -0.0663534 0.132139 0.140836 0.112767 0.116781 0.112767 0.116781 0.0912647 0.0905206 0.102253 0.112767 0.0853292 0.0912647 0.117119 0.132139 0.102253 0.112767 -0.0210784 -0.0398538 -0.017001 -0.0329265 -0.0232475 -0.0436167 -0.0210784 -0.0398538 -0.0436167 -0.0658729 -0.0398538 -0.0600178 -0.0398538 -0.0600178 -0.0329265 -0.0498666 0.0570009 0.0735437 0.0474326 0.0598636 0.0735437 0.0853292 0.0598636 0.0673726 0.0598636 0.0673726 0.0457597 0.0492471 0.0474326 0.0598636 0.0375367 0.0457597 -0.0988354 -0.0931569 -0.13364 -0.127096 -0.0675663 -0.0623969 -0.0988354 -0.0931569 -0.0623969 -0.0582926 -0.0931569 -0.0891765 -0.0931569 -0.0891765 -0.127096 -0.122637 -0.00685252 -0.00621932 -0.0232968 -0.0213075 -0.00679785 -0.00685252 -0.0232475 -0.0232968 0 0 -0.00679785 -0.00685252 0 0 -0.00685252 -0.00621932 0.0688813 0.0636079 0.0469814 0.0381745 0.0673726 0.0688813 0.0492471 0.0469814 0.0853292 0.0912647 0.0673726 0.0688813 0.0912647 0.0905206 0.0688813 0.0636079 -0.0248472 -0.0252987 -0.0531335 -0.0465042 0 0 -0.0248472 -0.0252987 0 0 -0.0252987 -0.0263799 -0.0252987 -0.0263799 -0.0465042 -0.03807 0.298562 1 0.4315 1 0.0612573 0.298562 0.187282 0.4315 0 0 0.0612573 0.298562 0 1 0.298562 1 -0.0263799 -0.0280765 -0.03807 -0.0244208 0 0 -0.0263799 -0.0280765 0 0 -0.0280765 -0.0272228 -0.0280765 -0.0272228 -0.0244208 0.00285559 0.0616721 0.124051 0.00285559 0.0563218 0.187282 0.254943 0.0616721 0.124051 0.254943 0.286913 0.124051 0.15651 0.124051 0.15651 0.0563218 0.090683 -0.0399738 -0.0351335 -0.067731 -0.059301 -0.067731 -0.059301 -0.0936803 -0.0812736 -0.0737654 -0.067731 -0.10301 -0.0936803 -0.0433711 -0.0399738 -0.0737654 -0.067731 -0.00621932 -0.00504913 -0.0213075 -0.0176609 0 0 -0.00621932 -0.00504913 0 0 -0.00504913 -0.00357786 -0.00504913 -0.00357786 -0.0176609 -0.0129857 -0.13174 -0.111232 -0.139073 -0.115675 -0.139073 -0.115675 -0.136462 -0.111821 -0.160072 -0.139073 -0.159386 -0.136462 -0.149225 -0.13174 -0.160072 -0.139073 -0.197646 -0.206841 -0.159796 -0.172157 -0.180848 -0.197646 -0.140681 -0.159796 -0.208411 -0.219441 -0.180848 -0.197646 -0.219441 -0.223728 -0.197646 -0.206841 0.0375581 0.0231761 0.0667538 0.0493953 0.0667538 0.0493953 0.0967318 0.0766499 0.0812521 0.0667538 0.113316 0.0967318 0.0496545 0.0375581 0.0812521 0.0667538 0.164556 0.387565 0.130839 0.353661 0.387565 1 0.353661 1 0.353661 1 0.318188 1 0.130839 0.353661 0.0955181 0.318188 0.0600756 0.281609 0.026707 0.243366 0.0955181 0.318188 0.0600756 0.281609 0.318188 1 0.281609 1 0.281609 1 0.243366 1 0.0124752 0.0197169 0.0157547 0.0271043 0.00754806 0.0100152 0.0124752 0.0197169 0.0100152 0.0111914 0.0197169 0.0256471 0.0197169 0.0256471 0.0271043 0.0375367 0 0 -0.0205101 -0.0226678 0 0 -0.0226678 -0.0239375 -0.0226678 -0.0239375 -0.0668279 -0.0638308 -0.0205101 -0.0226678 -0.0668727 -0.0668279 0.160695 0.177993 0.148349 0.16151 0.148349 0.16151 0.132139 0.140836 0.129031 0.148349 0.117119 0.132139 0.137456 0.160695 0.129031 0.148349 -0.222906 -0.209353 -0.223728 -0.206841 -0.217893 -0.206055 -0.222906 -0.209353 -0.206055 -0.17707 -0.209353 -0.177766 -0.209353 -0.177766 -0.206841 -0.172157 0 0.00427518 0 0.00492144 0 0.00303599 0 0.00427518 0.00303599 0.00754806 0.00427518 0.0124752 0.00427518 0.0124752 0.00492144 0.0157547 -0.100766 -0.0860769 -0.129953 -0.11888 -0.129953 -0.11888 -0.154252 -0.15144 -0.130282 -0.129953 -0.140985 -0.154252 -0.111361 -0.100766 -0.130282 -0.129953 0 0 -0.000688143 -0.00275193 0 0 -0.00275193 -0.00461123 -0.00275193 -0.00461123 -0.0114644 -0.017001 -0.000688143 -0.00275193 -0.00507412 -0.0114644 0.419365 1 0.387565 1 0.195618 0.419365 0.164556 0.387565 0.223329 0.448483 0.195618 0.419365 0.448483 1 0.419365 1 -0.111361 -0.0881723 -0.100766 -0.0712652 -0.0881723 -0.0638992 -0.0712652 -0.0436862 -0.0712652 -0.0436862 -0.0559401 -0.028498 -0.100766 -0.0712652 -0.0860769 -0.0559401 -0.0603489 -0.0289014 -0.043885 -0.0187289 -0.0289014 0 -0.0187289 0 -0.0187289 0 -0.00947895 0 -0.043885 -0.0187289 -0.0278757 -0.00947895 -0.00480766 -0.0143534 0.00172033 -0.00242695 -0.0143534 -0.0278757 -0.00242695 -0.00947895 -0.00242695 -0.00947895 0 0 0.00172033 -0.00242695 0 0 -0.0864462 -0.0759267 -0.0444093 -0.0376873 -0.0759267 -0.0632542 -0.0376873 -0.0301286 -0.0376873 -0.0301286 0 0 -0.0444093 -0.0376873 0 0 -0.0952739 -0.105534 -0.140274 -0.140985 -0.0789348 -0.0952739 -0.127486 -0.140274 -0.0345001 -0.0455496 -0.0789348 -0.0952739 -0.0455496 -0.0556953 -0.0952739 -0.105534 0.137456 0.142236 0.160695 0.16883 0.142236 0.143435 0.16883 0.17266 0.16883 0.17266 0.189808 0.196752 0.160695 0.16883 0.177993 0.189808 0.0191258 0.00932701 0.0496545 0.0375581 -0.0101663 -0.0181387 0.0191258 0.00932701 -0.0181387 -0.028498 0.00932701 -0.0025296 0.00932701 -0.0025296 0.0375581 0.0231761 0.203312 0.243366 1 1 0.153577 0.203312 1 1 -0.0186484 -0.00153108 0.153577 0.203312 -0.00153108 0.026707 0.203312 0.243366 -0.124126 -0.10011 -0.103777 -0.0820774 -0.14697 -0.124126 -0.124786 -0.103777 -0.159386 -0.136462 -0.14697 -0.124126 -0.136462 -0.111821 -0.124126 -0.10011 -0.0638992 -0.0403129 -0.0436862 -0.0183101 -0.0403129 -0.0178737 -0.0183101 0.00559053 -0.0183101 0.00559053 -0.0025296 0.0231761 -0.0436862 -0.0183101 -0.028498 -0.0025296 -0.0205101 -0.0668727 -0.0175035 -0.0631578 -0.0175035 -0.0631578 -0.0139892 -0.0556953 0 -0.0175035 0 -0.0139892 0 -0.0205101 0 -0.0175035 -0.0289014 -0.0384642 0 0 -0.0603489 -0.075213 -0.0289014 -0.0384642 -0.075213 -0.0867969 -0.0384642 -0.0460018 -0.0384642 -0.0460018 0 0 -0.0457344 -0.0433711 -0.0776887 -0.0737654 -0.0776887 -0.0737654 -0.109294 -0.10301 -0.0801776 -0.0776887 -0.113154 -0.109294 -0.0476337 -0.0457344 -0.0801776 -0.0776887 -0.0330694 -0.00344229 -0.028274 0.00233826 -0.0623969 -0.0330694 -0.0582926 -0.028274 -0.0675663 -0.0386475 -0.0623969 -0.0330694 -0.0386475 -0.0101663 -0.0330694 -0.00344229 0.00295272 0.00172033 0 0 0.0019128 0.00295272 0 0 0.00147581 0.00025169 0.0019128 0.00295272 0.00025169 -0.00480766 0.00295272 0.00172033 -0.138348 -0.0962183 -0.136783 -0.0939779 -0.136783 -0.0939779 -0.129372 -0.0867969 -0.177766 -0.136783 -0.172157 -0.129372 -0.17707 -0.138348 -0.177766 -0.136783 -0.000688143 -0.00507412 0.00132012 0.00149047 0.00132012 0.00149047 0.00303599 0.00754806 0 0.00132012 0 0.00303599 0 -0.000688143 0 0.00132012 -0.184546 -0.159303 -0.197608 -0.170686 -0.197608 -0.170686 -0.206055 -0.17707 -0.208985 -0.197608 -0.217893 -0.206055 -0.19618 -0.184546 -0.208985 -0.197608 -0.197363 -0.163633 -0.193457 -0.158762 -0.200213 -0.169802 -0.197363 -0.163633 -0.169802 -0.13364 -0.163633 -0.127096 -0.163633 -0.127096 -0.158762 -0.122637 -0.0476337 -0.0155653 -0.0457344 -0.0140472 -0.0155653 0.0163507 -0.0140472 0.0172312 -0.0140472 0.0172312 -0.012925 0.0169599 -0.0457344 -0.0140472 -0.0433711 -0.012925 -0.00944129 -0.0267893 -0.00455758 -0.0149805 -0.0158752 -0.0418787 -0.00944129 -0.0267893 -0.0418787 -0.0791933 -0.0267893 -0.0541582 -0.0267893 -0.0541582 -0.0149805 -0.0331422 -0.218787 -0.218118 -0.219441 -0.223728 -0.21524 -0.218787 -0.208411 -0.219441 -0.200213 -0.197363 -0.21524 -0.218787 -0.197363 -0.193457 -0.218787 -0.218118 0.0482325 0.0797246 0.0479107 0.0774602 0.0479107 0.0774602 0.0457489 0.0727238 0.0172312 0.0479107 0.0169599 0.0457489 0.0163507 0.0482325 0.0172312 0.0479107 -0.0386475 -0.0456956 -0.0101663 -0.0181387 -0.0675663 -0.074906 -0.0386475 -0.0456956 -0.074906 -0.0860769 -0.0456956 -0.0559401 -0.0456956 -0.0559401 -0.0181387 -0.028498 -0.180268 -0.202232 -0.18536 -0.209738 -0.173166 -0.191767 -0.180268 -0.202232 -0.191767 -0.19618 -0.202232 -0.208985 -0.202232 -0.208985 -0.209738 -0.217893 0.0368187 0.0570009 0.0312418 0.0474326 0.0312418 0.0474326 0.0256471 0.0375367 0.0124144 0.0312418 0.0111914 0.0256471 0.0140555 0.0368187 0.0124144 0.0312418 0.109923 0.137456 0.104928 0.129031 0.104928 0.129031 0.0969051 0.117119 0.0774602 0.104928 0.0727238 0.0969051 0.0797246 0.109923 0.0774602 0.104928 -0.0631578 -0.107926 -0.0556953 -0.105534 -0.0668727 -0.102761 -0.0631578 -0.107926 -0.102761 -0.111361 -0.107926 -0.130282 -0.107926 -0.130282 -0.105534 -0.140985 -0.0101663 0.0191258 -0.00344229 0.0273913 0.0191258 0.0496545 0.0273913 0.0596064 0.0273913 0.0596064 0.034244 0.0674934 -0.00344229 0.0273913 0.00233826 0.034244 -0.21524 -0.208411 -0.204511 -0.188681 -0.204511 -0.188681 -0.183141 -0.159083 -0.199219 -0.204511 -0.189655 -0.183141 -0.200213 -0.21524 -0.199219 -0.204511 0.000279138 -0.000844633 0.000751495 0.00147581 0 0.000279138 0 0.000751495 0 -0.000538203 0 0.000279138 -0.000538203 -0.00455758 0.000279138 -0.000844633 0.0774932 0.0734287 0.111099 0.107643 0.0734287 0.0674934 0.107643 0.101585 0.107643 0.101585 0.141162 0.135446 0.111099 0.107643 0.143435 0.141162 0.0969051 0.117119 0.086195 0.102253 0.086195 0.102253 0.0735437 0.0853292 0.0657046 0.086195 0.0570009 0.0735437 0.0727238 0.0969051 0.0657046 0.086195 0.247277 0.205372 0.267284 0.216688 0.223329 0.189221 0.247277 0.205372 0.189221 0.177993 0.205372 0.189808 0.205372 0.189808 0.216688 0.196752 -0.00795638 0.0124144 -0.00473186 0.0111914 -0.0287391 -0.00795638 -0.0210054 -0.00473186 -0.0351335 -0.0102773 -0.0287391 -0.00795638 -0.0102773 0.0140555 -0.00795638 0.0124144 -0.0433711 -0.012925 -0.0399738 -0.0118142 -0.012925 0.0169599 -0.0118142 0.0157539 -0.0118142 0.0157539 -0.0102773 0.0140555 -0.0399738 -0.0118142 -0.0351335 -0.0102773 -0.00599258 -0.0166954 0.00025169 -0.00480766 -0.000844633 -0.00599258 0.00147581 0.00025169 -0.00455758 -0.0149805 -0.000844633 -0.00599258 -0.0149805 -0.0331422 -0.00599258 -0.0166954 -0.179532 -0.159386 -0.167428 -0.14697 -0.167428 -0.14697 -0.14369 -0.124786 -0.184546 -0.167428 -0.159303 -0.14369 -0.19618 -0.179532 -0.184546 -0.167428 -0.0864462 -0.0444093 -0.0935328 -0.0493354 -0.0444093 0 -0.0493354 0 -0.0493354 0 -0.0515755 0 -0.0935328 -0.0493354 -0.0962183 -0.0515755 0.172198 0.167457 0.198806 0.196052 0.17266 0.172198 0.196752 0.198806 0.143435 0.141162 0.17266 0.172198 0.141162 0.135446 0.172198 0.167457 -0.00485255 -0.0242725 -0.00296432 -0.0158752 0 -0.00485255 0 -0.00296432 0 -0.00736055 0 -0.00485255 -0.00736055 -0.0345001 -0.00485255 -0.0242725 -0.0104706 -0.0139892 -0.0455496 -0.0556953 -0.00736055 -0.0104706 -0.0345001 -0.0455496 0 0 -0.00736055 -0.0104706 0 0 -0.0104706 -0.0139892 -0.0253619 -0.0158826 -0.00990042 -0.00539981 -0.00990042 -0.00539981 0 0 -0.0157068 -0.00990042 0 0 -0.0368665 -0.0253619 -0.0157068 -0.00990042 -0.0632542 -0.0498147 -0.0301286 -0.0225871 -0.0498147 -0.0368665 -0.0225871 -0.0157068 -0.0225871 -0.0157068 0 0 -0.0301286 -0.0225871 0 0 0.158409 0.188643 0.167457 0.196052 0.126207 0.158409 0.135446 0.167457 0.113316 0.145034 0.126207 0.158409 0.145034 0.176794 0.158409 0.188643 0.309401 0.552469 0.304238 0.543732 0.552469 1 0.543732 1 0.543732 1 0.531626 1 0.304238 0.543732 0.295611 0.531626 -0.124786 -0.103777 -0.0958533 -0.0779985 -0.103777 -0.0820774 -0.0779985 -0.0600437 -0.0779985 -0.0600437 -0.0498147 -0.0368665 -0.0958533 -0.0779985 -0.0632542 -0.0498147 -0.14369 -0.124786 -0.112094 -0.0958533 -0.112094 -0.0958533 -0.0759267 -0.0632542 -0.125304 -0.112094 -0.0864462 -0.0759267 -0.159303 -0.14369 -0.125304 -0.112094 0.00149047 -0.00108023 0.00754806 0.0100152 -0.00507412 -0.0125978 0.00149047 -0.00108023 -0.0125978 -0.0210054 -0.00108023 -0.00473186 -0.00108023 -0.00473186 0.0100152 0.0111914 -