# vtk DataFile Version 3.0
#This file was generated by the deal.II library on 2020/12/25 at 19:56:23
ASCII
DATASET UNSTRUCTURED_GRID

POINTS 4428 double
0.125 0.124999 0
0.125 0.0833324 0
0.166666 0.124998 0
0.166667 0.0833322 0
0.125 0.166665 0
0.125 0.124999 0
0.166666 0.166664 0
0.166666 0.124998 0
0.0833332 0.166666 0
0.0833332 0.124999 0
0.125 0.166665 0
0.125 0.124999 0
0.0833332 0.124999 0
0.0833333 0.0833327 0
0.125 0.124999 0
0.125 0.0833324 0
0.458332 0.541659 0
0.499999 0.541659 0
0.458332 0.583326 0
0.499999 0.583326 0
0.416666 0.541659 0
0.458332 0.541659 0
0.416666 0.583326 0
0.458332 0.583326 0
0.416666 0.499992 0
0.458332 0.499992 0
0.416666 0.541659 0
0.458332 0.541659 0
0.458332 0.499992 0
0.499999 0.499992 0
0.458332 0.541659 0
0.499999 0.541659 0
0.541666 0.624993 0
0.583332 0.624993 0
0.541666 0.66666 0
0.583332 0.66666 0
0.499999 0.624993 0
0.541666 0.624993 0
0.499999 0.66666 0
0.541666 0.66666 0
0.499999 0.583326 0
0.541666 0.583326 0
0.499999 0.624993 0
0.541666 0.624993 0
0.541666 0.583326 0
0.583332 0.583326 0
0.541666 0.624993 0
0.583332 0.624993 0
0.499999 0.541659 0
0.541666 0.541659 0
0.499999 0.583326 0
0.541666 0.583326 0
0.499999 0.499992 0
0.541666 0.499992 0
0.499999 0.541659 0
0.541666 0.541659 0
0.541666 0.499992 0
0.583332 0.499992 0
0.541666 0.541659 0
0.583332 0.541659 0
0.541666 0.541659 0
0.583332 0.541659 0
0.541666 0.583326 0
0.583332 0.583326 0
0.499999 0.458326 0
0.499999 0.416659 0
0.541666 0.458326 0
0.541666 0.416659 0
0.541666 0.458326 0
0.541666 0.416659 0
0.583332 0.458326 0
0.583332 0.416659 0
0.541666 0.499992 0
0.541666 0.458326 0
0.583332 0.499992 0
0.583332 0.458326 0
0.499999 0.499992 0
0.499999 0.458326 0
0.541666 0.499992 0
0.541666 0.458326 0
0.208333 0.20833 0
0.166666 0.208331 0
0.208333 0.166664 0
0.166666 0.166664 0
0.25 0.20833 0
0.208333 0.20833 0
0.25 0.166664 0
0.208333 0.166664 0
0.249999 0.249996 0
0.208333 0.249996 0
0.25 0.20833 0
0.208333 0.20833 0
0.208333 0.249996 0
0.166666 0.249997 0
0.208333 0.20833 0
0.166666 0.208331 0
0.291666 0.874997 0
0.25 0.874998 0
0.291666 0.83333 0
0.25 0.83333 0
0.333333 0.874997 0
0.291666 0.874997 0
0.333333 0.83333 0
0.291666 0.83333 0
0.499999 0.374993 0
0.541666 0.374993 0
0.499999 0.416659 0
0.541666 0.416659 0
0.499999 0.333326 0
0.541666 0.333326 0
0.499999 0.374993 0
0.541666 0.374993 0
0.541666 0.333326 0
0.583332 0.333327 0
0.541666 0.374993 0
0.583332 0.374993 0
0.541666 0.374993 0
0.583332 0.374993 0
0.541666 0.416659 0
0.583332 0.416659 0
0.458332 0.499992 0
0.458332 0.458326 0
0.499999 0.499992 0
0.499999 0.458326 0
0.416666 0.499992 0
0.416666 0.458326 0
0.458332 0.499992 0
0.458332 0.458326 0
0.416666 0.458326 0
0.416666 0.416659 0
0.458332 0.458326 0
0.458332 0.416659 0
0.458332 0.458326 0
0.458332 0.416659 0
0.499999 0.458326 0
0.499999 0.416659 0
0.708333 0.166663 0
0.708333 0.124997 0
0.75 0.166664 0
0.75 0.124998 0
0.666666 0.166663 0
0.666666 0.124997 0
0.708333 0.166663 0
0.708333 0.124997 0
0.666666 0.124997 0
0.666666 0.0833314 0
0.708333 0.124997 0
0.708333 0.0833316 0
0.708333 0.124997 0
0.708333 0.0833316 0
0.75 0.124998 0
0.75 0.0833317 0
0.499999 0.29166 0
0.499999 0.249994 0
0.541666 0.29166 0
0.541666 0.249994 0
0.541666 0.29166 0
0.541666 0.249994 0
0.583333 0.29166 0
0.583333 0.249994 0
0.541666 0.333326 0
0.541666 0.29166 0
0.583332 0.333327 0
0.583333 0.29166 0
0.499999 0.333326 0
0.499999 0.29166 0
0.541666 0.333326 0
0.541666 0.29166 0
0.125 0.208331 0
0.125 0.166665 0
0.166666 0.208331 0
0.166666 0.166664 0
0.125 0.249998 0
0.125 0.208331 0
0.166666 0.249997 0
0.166666 0.208331 0
0.0833331 0.249998 0
0.0833331 0.208332 0
0.125 0.249998 0
0.125 0.208331 0
0.0833331 0.208332 0
0.0833332 0.166666 0
0.125 0.208331 0
0.125 0.166665 0
0.249999 0.458327 0
0.208333 0.458328 0
0.249999 0.416661 0
0.208333 0.416662 0
0.249999 0.499994 0
0.208333 0.499995 0
0.249999 0.458327 0
0.208333 0.458328 0
0.208333 0.499995 0
0.166666 0.499996 0
0.208333 0.458328 0
0.166666 0.458329 0
0.208333 0.458328 0
0.166666 0.458329 0
0.208333 0.416662 0
0.166666 0.416662 0
0.708333 0.458327 0
0.708333 0.41666 0
0.749999 0.458328 0
0.749999 0.416661 0
0.708332 0.499994 0
0.708333 0.458327 0
0.749999 0.499994 0
0.749999 0.458328 0
0.666666 0.499993 0
0.666666 0.458327 0
0.708332 0.499994 0
0.708333 0.458327 0
0.666666 0.458327 0
0.666666 0.41666 0
0.708333 0.458327 0
0.708333 0.41666 0
0.416666 0.583326 0
0.458332 0.583326 0
0.416666 0.624993 0
0.458332 0.624993 0
0.458332 0.583326 0
0.499999 0.583326 0
0.458332 0.624993 0
0.499999 0.624993 0
0.458332 0.624993 0
0.499999 0.624993 0
0.458332 0.66666 0
0.499999 0.66666 0
0.416666 0.624993 0
0.458332 0.624993 0
0.416666 0.66666 0
0.458332 0.66666 0
0.458333 0.708327 0
0.499999 0.708327 0
0.458333 0.749994 0
0.499999 0.749994 0
0.416666 0.708327 0
0.458333 0.708327 0
0.416666 0.749994 0
0.458333 0.749994 0
0.416666 0.66666 0
0.458332 0.66666 0
0.416666 0.708327 0
0.458333 0.708327 0
0.458332 0.66666 0
0.499999 0.66666 0
0.458333 0.708327 0
0.499999 0.708327 0
0.208333 0.874998 0
0.166666 0.874998 0
0.208333 0.833331 0
0.166666 0.833331 0
0.25 0.874998 0
0.208333 0.874998 0
0.25 0.83333 0
0.208333 0.833331 0
0 0.875 0
0 0.833333 0
0.0416666 0.875 0
0.0416666 0.833333 0
0.0416666 0.875 0
0.0416666 0.833333 0
0.0833332 0.874999 0
0.0833332 0.833332 0
0.458332 0.333326 0
0.499999 0.333326 0
0.458332 0.374993 0
0.499999 0.374993 0
0.458332 0.374993 0
0.499999 0.374993 0
0.458332 0.416659 0
0.499999 0.416659 0
0.416666 0.374993 0
0.458332 0.374993 0
0.416666 0.416659 0
0.458332 0.416659 0
0.416666 0.333327 0
0.458332 0.333326 0
0.416666 0.374993 0
0.458332 0.374993 0
0.125 0.45833 0
0.125 0.416663 0
0.166666 0.458329 0
0.166666 0.416662 0
0.125 0.499997 0
0.125 0.45833 0
0.166666 0.499996 0
0.166666 0.458329 0
0.083333 0.499998 0
0.083333 0.458331 0
0.125 0.499997 0
0.125 0.45833 0
0.083333 0.458331 0
0.083333 0.416664 0
0.125 0.45833 0
0.125 0.416663 0
0.375 0.874997 0
0.333333 0.874997 0
0.374999 0.83333 0
0.333333 0.83333 0
0.416666 0.874997 0
0.375 0.874997 0
0.416666 0.833329 0
0.374999 0.83333 0
0.374999 0.374993 0
0.374999 0.416659 0
0.333332 0.374993 0
0.333332 0.41666 0
0.374999 0.333327 0
0.374999 0.374993 0
0.333333 0.333327 0
0.333332 0.374993 0
0.416666 0.333327 0
0.416666 0.374993 0
0.374999 0.333327 0
0.374999 0.374993 0
0.416666 0.374993 0
0.416666 0.416659 0
0.374999 0.374993 0
0.374999 0.416659 0
0.791666 0.791664 0
0.791666 0.833331 0
0.75 0.791663 0
0.75 0.83333 0
0.791666 0.749997 0
0.791666 0.791664 0
0.749999 0.749996 0
0.75 0.791663 0
0.291666 0.624994 0
0.291666 0.666661 0
0.249999 0.624995 0
0.249999 0.666662 0
0.291666 0.583327 0
0.291666 0.624994 0
0.249999 0.583328 0
0.249999 0.624995 0
0.333332 0.583326 0
0.333332 0.624994 0
0.291666 0.583327 0
0.291666 0.624994 0
0.333332 0.624994 0
0.333333 0.666661 0
0.291666 0.624994 0
0.291666 0.666661 0
0.416666 0.333327 0
0.374999 0.333327 0
0.416666 0.29166 0
0.374999 0.291661 0
0.374999 0.333327 0
0.333333 0.333327 0
0.374999 0.291661 0
0.333333 0.291661 0
0.374999 0.291661 0
0.333333 0.291661 0
0.374999 0.249995 0
0.333333 0.249995 0
0.416666 0.29166 0
0.374999 0.291661 0
0.416666 0.249994 0
0.374999 0.249995 0
0.624999 0.66666 0
0.624999 0.708328 0
0.583332 0.66666 0
0.583333 0.708327 0
0.666666 0.666661 0
0.666666 0.708328 0
0.624999 0.66666 0
0.624999 0.708328 0
0.666666 0.708328 0
0.666666 0.749995 0
0.624999 0.708328 0
0.624999 0.749995 0
0.624999 0.708328 0
0.624999 0.749995 0
0.583333 0.708327 0
0.583333 0.749995 0
0.0416666 0.125 0
0.0416666 0.083333 0
0.0833332 0.124999 0
0.0833333 0.0833327 0
0.0416666 0.166666 0
0.0416666 0.125 0
0.0833332 0.166666 0
0.0833332 0.124999 0
0 0.166667 0
0 0.125 0
0.0416666 0.166666 0
0.0416666 0.125 0
0 0.125 0
0 0.0833333 0
0.0416666 0.125 0
0.0416666 0.083333 0
0.0833332 0.874999 0
0.0833332 0.833332 0
0.125 0.874999 0
0.125 0.833332 0
0.125 0.874999 0
0.125 0.833332 0
0.166666 0.874998 0
0.166666 0.833331 0
0.541667 0.0416655 0
0.541667 0 0
0.583333 0.0416656 0
0.583333 0 0
0.541666 0.0833311 0
0.541667 0.0416655 0
0.583333 0.0833311 0
0.583333 0.0416656 0
0.5 0.0833311 0
0.5 0.0416655 0
0.541666 0.0833311 0
0.541667 0.0416655 0
0.5 0.0416655 0
0.5 0 0
0.541667 0.0416655 0
0.541667 0 0
0.666666 0.374994 0
0.708333 0.374994 0
0.666666 0.41666 0
0.708333 0.41666 0
0.666666 0.333327 0
0.708333 0.333328 0
0.666666 0.374994 0
0.708333 0.374994 0
0.708333 0.333328 0
0.749999 0.333328 0
0.708333 0.374994 0
0.749999 0.374995 0
0.708333 0.374994 0
0.749999 0.374995 0
0.708333 0.41666 0
0.749999 0.416661 0
0.666666 0.208329 0
0.666666 0.166663 0
0.708333 0.208329 0
0.708333 0.166663 0
0.708333 0.208329 0
0.708333 0.166663 0
0.75 0.20833 0
0.75 0.166664 0
0.333333 0.333327 0
0.333332 0.374993 0
0.291666 0.333328 0
0.291666 0.374994 0
0.333332 0.374993 0
0.333332 0.41666 0
0.291666 0.374994 0
0.291666 0.41666 0
0.291666 0.374994 0
0.291666 0.41666 0
0.249999 0.374994 0
0.249999 0.416661 0
0.291666 0.333328 0
0.291666 0.374994 0
0.249999 0.333328 0
0.249999 0.374994 0
0.666666 0.166663 0
0.624999 0.166663 0
0.666666 0.124997 0
0.625 0.124997 0
0.624999 0.166663 0
0.583333 0.166663 0
0.625 0.124997 0
0.583333 0.124997 0
0.625 0.124997 0
0.583333 0.124997 0
0.625 0.0833312 0
0.583333 0.0833311 0
0.666666 0.124997 0
0.625 0.124997 0
0.666666 0.0833314 0
0.625 0.0833312 0
0 0.0833333 0
0 0.0416667 0
0.0416666 0.083333 0
0.0416666 0.0416665 0
0 0.0416667 0
0 0 0
0.0416666 0.0416665 0
0.0416667 0 0
0.0416666 0.0416665 0
0.0416667 0 0
0.0833333 0.0416664 0
0.0833333 0 0
0.0416666 0.083333 0
0.0416666 0.0416665 0
0.0833333 0.0833327 0
0.0833333 0.0416664 0
0.791666 0.124998 0
0.75 0.124998 0
0.791666 0.083332 0
0.75 0.0833317 0
0.833333 0.124998 0
0.791666 0.124998 0
0.833333 0.0833322 0
0.791666 0.083332 0
0.833333 0.166665 0
0.791666 0.166664 0
0.833333 0.124998 0
0.791666 0.124998 0
0.791666 0.166664 0
0.75 0.166664 0
0.791666 0.124998 0
0.75 0.124998 0
0.875 0.291664 0
0.833333 0.291663 0
0.875 0.249998 0
0.833333 0.249997 0
0.916666 0.291665 0
[...]
POINT_DATA 4428
SCALARS solution_0 double 1
LOOKUP_TABLE default
-0.0253847 -0.00965596 -0.0457181 -0.0212826 -0.0433969 -0.0253847 -0.0718085 -0.0457181 -0.0211492 -0.0109687 -0.0433969 -0.0253847 -0.0109687 -0.00305864 -0.0253847 -0.00965596 -0.0141085 -0.0175229 0.0206417 0.0173962 -0.0111462 -0.0141085 0.023281 0.0206417 -0.0450148 -0.0481425 -0.0111462 -0.0141085 -0.0481425 -0.0516225 -0.0141085 -0.0175229 0.0492887 0.0438449 0.0869007 0.0811593 0.0533922 0.0492887 0.0909321 0.0869007 0.0173962 0.0133055 0.0533922 0.0492887 0.0133055 0.00821036 0.0492887 0.0438449 -0.0175229 -0.0215293 0.0173962 0.0133055 -0.0516225 -0.0554629 -0.0175229 -0.0215293 -0.0554629 -0.0596592 -0.0215293 -0.0262128 -0.0215293 -0.0262128 0.0133055 0.00821036 -0.0849782 -0.11784 -0.08851 -0.120821 -0.08851 -0.120821 -0.0921114 -0.123751 -0.0554629 -0.08851 -0.0596592 -0.0921114 -0.0516225 -0.0849782 -0.0554629 -0.08851 -0.131718 -0.0942264 -0.105229 -0.0718085 -0.169465 -0.131718 -0.141269 -0.105229 -0.181695 -0.146426 -0.169465 -0.131718 -0.146426 -0.108756 -0.131718 -0.0942264 0.172994 0.134108 0.174894 0.144028 0.206854 0.172994 0.200939 0.174894 -0.151383 -0.153627 -0.11784 -0.120821 -0.187926 -0.189711 -0.151383 -0.153627 -0.189711 -0.192369 -0.153627 -0.156105 -0.153627 -0.156105 -0.120821 -0.123751 -0.0481425 -0.0816423 -0.0516225 -0.0849782 -0.0450148 -0.0786509 -0.0481425 -0.0816423 -0.0786509 -0.112652 -0.0816423 -0.115032 -0.0816423 -0.115032 -0.0849782 -0.11784 -0.193124 -0.127514 -0.145612 -0.0875463 -0.231921 -0.164747 -0.193124 -0.127514 -0.164747 -0.0974991 -0.127514 -0.0685668 -0.127514 -0.0685668 -0.0875463 -0.0410101 -0.22846 -0.267542 -0.230588 -0.270451 -0.230588 -0.270451 -0.233795 -0.273581 -0.189711 -0.230588 -0.192369 -0.233795 -0.187926 -0.22846 -0.189711 -0.230588 -0.060063 -0.0433969 -0.0942264 -0.0718085 -0.0720733 -0.060063 -0.108756 -0.0942264 -0.0391357 -0.0312666 -0.0720733 -0.060063 -0.0312666 -0.0211492 -0.060063 -0.0433969 -0.0677804 -0.0607008 -0.100623 -0.0897182 -0.0349282 -0.0307965 -0.0677804 -0.0607008 -0.0307965 -0.0245477 -0.0607008 -0.049691 -0.0607008 -0.049691 -0.0897182 -0.0732805 -0.102122 -0.133361 -0.10703 -0.140642 -0.0728171 -0.102122 -0.0773305 -0.10703 -0.068589 -0.0988726 -0.0728171 -0.102122 -0.0988726 -0.129379 -0.102122 -0.133361 0.023281 0.0206417 0.0585804 0.0563892 0.0206417 0.0173962 0.0563892 0.0533922 0.0563892 0.0533922 0.0935524 0.0909321 0.0585804 0.0563892 0.0950615 0.0935524 0.132398 0.130443 0.172407 0.171696 0.132713 0.132398 0.170607 0.172407 0.0950615 0.0935524 0.132713 0.132398 0.0935524 0.0909321 0.132398 0.130443 0.0923151 0.0512397 0.10974 0.0742774 0.134108 0.0923151 0.144028 0.10974 0 0 -0.00585728 0.00256258 -0.00585728 0.00256258 -0.00398158 0.015737 -0.186789 -0.187926 -0.149493 -0.151383 -0.149493 -0.151383 -0.115032 -0.11784 -0.148108 -0.149493 -0.112652 -0.115032 -0.186013 -0.186789 -0.148108 -0.149493 -0.0351503 -0.0524845 -0.049691 -0.0732805 -0.0160778 -0.0351503 -0.0245477 -0.049691 -0.00638062 -0.01868 -0.0160778 -0.0351503 -0.01868 -0.0297194 -0.0351503 -0.0524845 0.234612 0.206854 0.2215 0.200939 0.255883 0.234612 0.236498 0.2215 -0.14708 -0.110825 -0.14552 -0.109194 -0.185005 -0.14708 -0.18185 -0.14552 -0.186013 -0.148108 -0.185005 -0.14708 -0.148108 -0.112652 -0.14708 -0.110825 0.104104 0.137234 0.134801 0.17029 0.0747109 0.104104 0.100914 0.134801 0.0609552 0.0922483 0.0587302 0.0866676 0.0286276 0.0609552 0.0286873 0.0587302 0.0274137 0.0611702 0.0286276 0.0609552 0.0611702 0.0949146 0.0609552 0.0922483 -0.186013 -0.185005 -0.225414 -0.221967 -0.185005 -0.18185 -0.221967 -0.214133 -0.221967 -0.214133 -0.250132 -0.234498 -0.225414 -0.221967 -0.259689 -0.250132 0.0734649 0.112127 0.0811593 0.120635 0.063627 0.100765 0.0734649 0.112127 0.100765 0.139901 0.112127 0.152938 0.112127 0.152938 0.120635 0.162284 -0.00248831 -0.000171368 -0.0109687 -0.00305864 -0.00571967 -0.00248831 -0.0211492 -0.0109687 0 0 -0.00571967 -0.00248831 0 0 -0.00248831 -0.000171368 -0.00398158 0.015737 0.0166951 0.0411805 0.0166951 0.0411805 0.0512397 0.0742774 -0.0849292 0 -0.0753252 0 -0.15743 -0.0849292 -0.144328 -0.0753252 -0.162294 -0.0881122 -0.15743 -0.0849292 -0.0881122 0 -0.0849292 0 -0.162961 -0.169379 -0.129379 -0.133361 -0.202243 -0.210119 -0.162961 -0.169379 -0.210119 -0.218167 -0.169379 -0.178955 -0.169379 -0.178955 -0.133361 -0.140642 -0.276866 -0.231921 -0.247913 -0.193124 -0.247913 -0.193124 -0.203057 -0.145612 -0.18185 -0.14552 -0.173938 -0.141326 -0.14552 -0.109194 -0.141326 -0.106499 -0.141326 -0.106499 -0.132 -0.100623 -0.173938 -0.141326 -0.158992 -0.132 -0.231921 -0.258968 -0.164747 -0.19505 -0.258968 -0.274742 -0.19505 -0.216221 -0.19505 -0.216221 -0.123747 -0.144328 -0.164747 -0.19505 -0.0974991 -0.123747 0 0 -0.000171368 -0.000903053 0 0 -0.000903053 0 -0.000903053 0 0.00112586 0 -0.000171368 -0.000903053 -0.00305864 0.00112586 -0.0507562 -0.0875463 -0.0188666 -0.0410101 -0.0230153 -0.0507562 -0.00460686 -0.0188666 -0.050604 -0.0950766 -0.0230153 -0.0507562 -0.0950766 -0.145612 -0.0507562 -0.0875463 -0.0981064 -0.169843 -0.0672401 -0.130218 -0.0382878 -0.0981064 -0.0224716 -0.0672401 -0.177179 -0.147571 -0.181695 -0.146426 -0.158992 -0.136358 -0.177179 -0.147571 -0.136358 -0.107445 -0.147571 -0.113152 -0.147571 -0.113152 -0.146426 -0.108756 0.0470315 0.0747109 0.0683066 0.100914 0.0204668 0.0470315 0.0371403 0.0683066 -0.00112521 0.0020366 0 0 0 -0.00112521 0 0 0 0.000917712 0 -0.00112521 0.000917712 0.0022946 -0.00112521 0.0020366 -0.195184 -0.245708 -0.146993 -0.203057 -0.146993 -0.203057 -0.0950766 -0.145612 -0.0880529 -0.146993 -0.050604 -0.0950766 -0.130218 -0.195184 -0.0880529 -0.146993 -0.189012 -0.151773 -0.178955 -0.140642 -0.043152 -0.0391357 -0.0773046 -0.0720733 -0.0773046 -0.0720733 -0.113152 -0.108756 -0.0751262 -0.0773046 -0.107445 -0.113152 -0.0427549 -0.043152 -0.0751262 -0.0773046 -0.1159 -0.0897182 -0.0933381 -0.0732805 -0.136358 -0.1159 -0.107445 -0.0933381 -0.158992 -0.132 -0.136358 -0.1159 -0.132 -0.100623 -0.1159 -0.0897182 0.183679 0.200939 0.165275 0.174894 0.165275 0.174894 0.142251 0.144028 0.146523 0.165275 0.130483 0.142251 0.158272 0.183679 0.146523 0.165275 -0.0381308 -0.0663859 -0.0297194 -0.0524845 -0.0427549 -0.0751262 -0.0381308 -0.0663859 -0.0751262 -0.107445 -0.0663859 -0.0933381 -0.0663859 -0.0933381 -0.0524845 -0.0732805 0.0866676 0.111194 0.0776829 0.0971332 0.111194 0.130483 0.0971332 0.110459 0.0971332 0.110459 0.0797198 0.0870992 0.0776829 0.0971332 0.0656844 0.0797198 -0.0988726 -0.0956206 -0.129379 -0.126526 -0.068589 -0.0641148 -0.0988726 -0.0956206 -0.0641148 -0.0596592 -0.0956206 -0.0921114 -0.0956206 -0.0921114 -0.126526 -0.123751 -0.0135617 -0.0120799 -0.043152 -0.0391357 -0.0124392 -0.0135617 -0.0427549 -0.043152 0 0 -0.0124392 -0.0135617 0 0 -0.0135617 -0.0120799 0.115394 0.10974 0.0858418 0.0742774 0.110459 0.115394 0.0870992 0.0858418 0.130483 0.142251 0.110459 0.115394 0.142251 0.144028 0.115394 0.10974 -0.0376395 -0.0349282 -0.0717113 -0.0677804 -0.0717113 -0.0677804 -0.106499 -0.100623 -0.0740428 -0.0717113 -0.109194 -0.106499 -0.0398754 -0.0376395 -0.0740428 -0.0717113 -0.0120799 -0.00919759 -0.0391357 -0.0312666 0 0 -0.0120799 -0.00919759 0 0 -0.00919759 -0.00571967 -0.00919759 -0.00571967 -0.0312666 -0.0211492 -0.173938 -0.158992 -0.199591 -0.177179 -0.199591 -0.177179 -0.211627 -0.181695 -0.214133 -0.199591 -0.234498 -0.211627 -0.18185 -0.173938 -0.214133 -0.199591 -0.291413 -0.296811 -0.258968 -0.274742 -0.276866 -0.291413 -0.231921 -0.258968 0.051514 0.0371403 0.0862317 0.0683066 0.0862317 0.0683066 0.122672 0.100914 0.100765 0.0862317 0.139901 0.122672 0.063627 0.051514 0.100765 0.0862317 0.0268864 0.0380123 0.0323454 0.0510212 0.0174765 0.021718 0.0268864 0.0380123 0.021718 0.0248438 0.0380123 0.0469078 0.0380123 0.0469078 0.0510212 0.0656844 0.206437 0.236498 0.197296 0.2215 0.197296 0.2215 0.183679 0.200939 0.166069 0.197296 0.158272 0.183679 0.170607 0.206437 0.166069 0.197296 -0.29293 -0.279837 -0.296734 -0.281127 -0.296734 -0.281127 -0.296811 -0.274742 0 0.00991598 0 0.0109281 0.00991598 0.0268864 0.0109281 0.0323454 -0.0849107 -0.0773305 -0.116164 -0.10703 -0.116164 -0.10703 -0.151773 -0.140642 -0.0976405 -0.0691647 -0.0849107 -0.0567614 -0.0691647 -0.043579 -0.0567614 -0.0304555 -0.0567614 -0.0304555 -0.0492876 -0.0214923 -0.0849107 -0.0567614 -0.0773305 -0.0492876 -0.0974991 -0.0430177 -0.0685668 -0.0254382 -0.0430177 0 -0.0254382 0 -0.0254382 0 -0.0106322 0 -0.0685668 -0.0254382 -0.0410101 -0.0106322 -0.00460686 -0.0188666 0.00416936 -0.000572099 -0.0188666 -0.0410101 -0.000572099 -0.0106322 -0.000572099 -0.0106322 0 0 0.00416936 -0.000572099 0 0 -0.147755 -0.129965 -0.075389 -0.0626297 -0.129965 -0.107443 -0.0626297 -0.0483812 -0.0626297 -0.0483812 0 0 -0.075389 -0.0626297 0 0 0.170607 0.172407 0.206437 0.211572 0.172407 0.171696 0.211572 0.213024 0.211572 0.213024 0.246158 0.25076 0.206437 0.211572 0.236498 0.246158 0.0284682 0.0185297 0.063627 0.051514 -0.00508416 -0.0130213 0.0284682 0.0185297 -0.0130213 -0.0214923 0.0185297 0.00726474 0.0185297 0.00726474 0.051514 0.0371403 -0.204342 -0.169465 -0.17681 -0.141269 -0.234032 -0.204342 -0.209043 -0.17681 -0.234498 -0.211627 -0.234032 -0.204342 -0.211627 -0.181695 -0.204342 -0.169465 -0.0052137 0.0204668 0.00726474 0.0371403 -0.0304555 -0.0052137 -0.0214923 0.00726474 -0.0430177 -0.0606124 0 0 -0.0974991 -0.123747 -0.0430177 -0.0606124 -0.123747 -0.144328 -0.0606124 -0.0753252 -0.0606124 -0.0753252 0 0 -0.0422604 -0.0398754 -0.0761429 -0.0740428 -0.0761429 -0.0740428 -0.110825 -0.109194 -0.0786509 -0.0761429 -0.112652 -0.110825 -0.0450148 -0.0422604 -0.0786509 -0.0761429 -0.031553 0.00205959 -0.0262128 0.00821036 -0.0641148 -0.031553 -0.0596592 -0.0262128 -0.068589 -0.0373841 -0.0641148 -0.031553 -0.0373841 -0.00508416 -0.031553 0.00205959 0.00450661 0.00416936 0 0 0.0020366 0.00450661 0 0 0.0022946 0.00173876 0.0020366 0.00450661 0.00173876 -0.00460686 0.00450661 0.00416936 -0.230245 -0.162294 -0.227791 -0.15743 -0.227791 -0.15743 -0.216221 -0.144328 -0.281127 -0.227791 -0.274742 -0.216221 -0.279837 -0.230245 -0.281127 -0.227791 -0.27441 -0.257094 -0.28607 -0.27168 -0.28607 -0.27168 -0.29293 -0.279837 -0.259689 -0.27441 -0.265257 -0.28607 -0.196372 -0.158966 -0.192369 -0.156105 -0.202243 -0.162961 -0.196372 -0.158966 -0.162961 -0.129379 -0.158966 -0.126526 -0.158966 -0.126526 -0.156105 -0.123751 -0.0450148 -0.0111462 -0.0422604 -0.00851652 -0.0111462 0.023281 -0.00851652 0.0255321 -0.00851652 0.0255321 -0.00619662 0.0274137 -0.0422604 -0.00851652 -0.0398754 -0.00619662 -0.0114921 -0.0399441 -0.00481679 -0.0201119 -0.0224716 -0.0672401 -0.0114921 -0.0399441 -0.0672401 -0.130218 -0.0399441 -0.0880529 -0.0399441 -0.0880529 -0.0201119 -0.050604 -0.238291 -0.233795 -0.276566 -0.273581 -0.202243 -0.196372 -0.243734 -0.238291 -0.196372 -0.192369 -0.238291 -0.233795 0.0585804 0.0950615 0.0601981 0.0956011 0.0601981 0.0956011 0.0611702 0.0949146 0.0255321 0.0601981 0.0274137 0.0611702 0.023281 0.0585804 0.0255321 0.0601981 -0.0373841 -0.0433952 -0.00508416 -0.0130213 -0.068589 -0.0728171 -0.0373841 -0.0433952 -0.0728171 -0.0773305 -0.0433952 -0.0492876 -0.0433952 -0.0492876 -0.0130213 -0.0214923 -0.186789 -0.226832 -0.187926 -0.22846 -0.186013 -0.225414 -0.186789 -0.226832 -0.225414 -0.259689 -0.226832 -0.265257 -0.226832 -0.265257 -0.22846 -0.267542 0.0587302 0.0866676 0.053952 0.0776829 0.053952 0.0776829 0.0469078 0.0656844 0.0273274 0.053952 0.0248438 0.0469078 0.0286873 0.0587302 0.0273274 0.053952 0.132713 0.170607 0.131345 0.166069 0.131345 0.166069 0.127833 0.158272 0.0956011 0.131345 0.0949146 0.127833 0.0950615 0.132713 0.0956011 0.131345 -0.00508416 0.0284682 0.00205959 0.0369223 0.0284682 0.063627 0.0369223 0.0734649 0.0369223 0.0734649 0.0438449 0.0811593 0.00205959 0.0369223 0.00821036 0.0438449 -0.202243 -0.243734 -0.210119 -0.249137 0.000668282 -0.000119144 0.000917712 0.0022946 0 0.000668282 0 0.000917712 0 -0.0003326 0 0.000668282 -0.0003326 -0.00481679 0.000668282 -0.000119144 0.0909321 0.0869007 0.130443 0.126627 0.0869007 0.0811593 0.126627 0.120635 0.126627 0.120635 0.16841 0.162284 0.130443 0.126627 0.171696 0.16841 0.127833 0.158272 0.121384 0.146523 0.121384 0.146523 0.111194 0.130483 0.0922483 0.121384 0.0866676 0.111194 0.0949146 0.127833 0.0922483 0.121384 0.255883 0.236498 0.270713 0.246158 0.270713 0.246158 0.279335 0.25076 -0.00118215 0.0273274 0.000670874 0.0248438 -0.0307965 -0.00118215 -0.0245477 0.000670874 -0.0349282 -0.00267202 -0.0307965 -0.00118215 -0.00267202 0.0286873 -0.00118215 0.0273274 -0.0398754 -0.00619662 -0.0376395 -0.00424986 -0.00619662 0.0274137 -0.00424986 0.0286276 -0.00424986 0.0286276 -0.00267202 0.0286873 -0.0376395 -0.00424986 -0.0349282 -0.00267202 -0.00674001 -0.0230153 0.00173876 -0.00460686 -0.000119144 -0.00674001 0.0022946 0.00173876 -0.00481679 -0.0201119 -0.000119144 -0.00674001 -0.0201119 -0.050604 -0.00674001 -0.0230153 -0.250132 -0.234498 -0.257415 -0.234032 -0.257415 -0.234032 -0.236114 -0.209043 -0.27441 -0.257415 -0.257094 -0.236114 -0.259689 -0.250132 -0.27441 -0.257415 -0.147755 -0.075389 -0.158894 -0.0845879 -0.075389 0 -0.0845879 0 -0.0845879 0 -0.0881122 0 -0.158894 -0.0845879 -0.162294 -0.0881122 0.210858 0.204927 0.250459 0.245207 0.213024 0.210858 0.25076 0.250459 0.171696 0.16841 0.213024 0.210858 0.16841 0.162284 0.210858 0.204927 -0.0379216 -0.0212826 -0.0114093 -0.00380027 -0.0114093 -0.00380027 0 0 -0.0218054 -0.0114093 0 0 -0.0589039 -0.0379216 -0.0218054 -0.0114093 -0.107443 -0.08283 -0.0483812 -0.0343625 -0.08283 -0.0589039 -0.0343625 -0.0218054 -0.0343625 -0.0218054 0 0 -0.0483812 -0.0343625 0 0 0.194837 0.234845 0.204927 0.245207 0.152938 0.194837 0.162284 0.204927 0.139901 0.180055 0.152938 0.194837 0.180055 0.219122 0.194837 0.234845 -0.209043 -0.17681 -0.164119 -0.13372 -0.17681 -0.141269 -0.13372 -0.101894 -0.13372 -0.101894 -0.08283 -0.0589039 -0.164119 -0.13372 -0.107443 -0.08283 -0.236114 -0.209043 -0.19042 -0.164119 -0.19042 -0.164119 -0.129965 -0.107443 -0.210841 -0.19042 -0.147755 -0.129965 -0.257094 -0.236114 -0.210841 -0.19042 0.00595181 0.00331748 0.0174765 0.021718 -0.00638062 -0.0160778 0.00595181 0.00331748 -0.0160778 -0.0245477 0.00331748 0.000670874 0.00331748 0.000670874 0.021718 0.0248438 -0.27168 -0.224364 -0.279837 -0.230245 -0.257094 -0.210841 -0.27168 -0.224364 -0.210841 -0.147755 -0.224364 -0.158894 -0.224364 -0.158894 -0.230245 -0.162294 -0.00305864 0.00112586 -0.00965596 0.0004937 0.00112586 0 0.0004937 0 0.0004937 0 -0.00380027 0 -0.00965596 0.0004937 -0.0212826 -0.00380027 -0.00118468 -0.0114921 -0.0003326 -0.00481679 0 -0.00118468 0 -0.0003326 0.0344762 0.0589654 0.0325626 0.0606977 0.0323454 0.0510212 0.0344762 0.0589654 0.0510212 0.0656844 0.0589654 0.0797198 0.0589654 0.0797198 0.0606977 0.0870992 0.160156 0.134801 0.197601 0.17029 0.180055 0.160156 0.219122 0.197601 0.139901 0.122672 0.180055 0.160156 0.122672 0.100914 0.160156 0.134801 0.0325626 0.0606977 0.026536 0.0551162 0.0606977 0.0870992 0.0551162 0.0858418 0.0551162 0.0858418 0.0411805 0.0742774 0.026536 0.0551162 0.015737 0.0411805 0.270104 0.278926 0.234845 0.245207 0.0109281 0.0323454 0.0104532 0.0344762 0.0104532 0.0344762 0.00889346 0.0325626 0 0.0104532 0 0.00889346 0 0.0109281 0 0.0104532 -0.0716908 -0.0457181 -0.0379216 -0.0212826 -0.101894 -0.0716908 -0.0589039 -0.0379216 -0.141269 -0.105229 -0.101894 -0.0716908 -0.105229 -0.0718085 -0.0716908 -0.0457181 0.279335 0.25076 0.282013 0.250459 0.282013 0.250459 0.278926 0.245207 0 0.00889346 0 0.00634947 0.00889346 0.0325626 0.00634947 0.026536 0.00634947 0.026536 0.00256258 0.015737 0 0.00634947 0 0.00256258 0.202193 0.182225 0.204674 0.186816 0.182225 0.160871 0.186816 0.167101 0.204674 0.186816 0.206854 0.189924 0.186816 0.167101 0.189924 0.172994 0.160871 0.138275 0.167101 0.146513 0.138275 0.114736 0.146513 0.124546 0.167101 0.146513 0.172994 0.153551 0.146513 0.124546 0.153551 0.134108 0.0329569 0.045331 0.0518107 0.0650235 0.045331 0.0607967 0.0650235 0.0811205 0.0518107 0.0650235 0.06996 0.0840757 0.0650235 0.0811205 0.0840757 0.100587 0.0129052 0.0224122 0.0297267 0.0402813 0.0224122 0.0329569 0.0402813 0.0518107 0.0297267 0.0402813 0.0454586 0.0572948 0.0402813 0.0518107 0.0572948 0.06996 -0.0251802 -0.018298 -0.00568107 0.00290601 -0.018298 -0.0100634 0.00290601 0.0126157 -0.00568107 0.00290601 0.0129052 0.0224122 0.00290601 0.0126157 0.0224122 0.0329569 -0.0100634 0.000282011 0.0126157 0.0242189 0.000282011 0.0138629 0.0242189 0.0389385 0.0126157 0.0242189 0.0329569 0.045331 0.0242189 0.0389385 0.045331 0.0607967 0.384174 0.401364 0.626887 0.640041 0.401364 0.41715 0.640041 0.652027 0.626887 0.640041 1 1 0.640041 0.652027 1 1 0.265799 0.277489 0.289149 0.303871 0.277489 0.287611 0.303871 0.317084 0.289149 0.303871 0.384174 0.401364 0.303871 0.317084 0.401364 0.41715 0.287611 0.296096 0.317084 0.328844 0.296096 0.303117 0.328844 0.339178 0.317084 0.328844 0.41715 0.431533 0.328844 0.339178 0.431533 0.444535 0.41715 0.431533 0.652027 0.662854 0.431533 0.444535 0.662854 0.672539 0.652027 0.662854 1 1 0.662854 0.672539 1 1 0.114736 0.0906517 0.124546 0.10223 0.0906517 0.0664603 0.10223 0.0794907 0.124546 0.10223 0.134108 0.113211 0.10223 0.0794907 0.113211 0.0923151 0.0664603 0.0428915 0.0794907 0.0572509 0.0428915 0.0206325 0.0572509 0.0362205 0.0794907 0.0572509 0.0923151 0.0717774 0.0572509 0.0362205 0.0717774 0.0512397 -0.0232217 -0.0127295 -0.0326124 -0.0180973 -0.0127295 -0.00585728 -0.0180973 -0.00491943 -0.0326124 -0.0180973 -0.0336805 -0.0170233 -0.0180973 -0.00491943 -0.0170233 -0.00398158 0 0 -0.00854811 -0.00440021 0 0 -0.00440021 -0.00292864 -0.00854811 -0.00440021 -0.0232217 -0.0127295 -0.00440021 -0.00292864 -0.0127295 -0.00585728 0.265799 0.252379 0.260539 0.24927 0.252379 0.237337 0.24927 0.235985 0.260539 0.24927 0.255883 0.245247 0.24927 0.235985 0.245247 0.234612 0.237337 0.220555 0.235985 0.221344 0.220555 0.202193 0.221344 0.204674 0.235985 0.221344 0.234612 0.220733 0.221344 0.204674 0.220733 0.206854 -0.217817 -0.220268 -0.224001 -0.232527 -0.220268 -0.218167 -0.232527 -0.234961 -0.224001 -0.232527 -0.222654 -0.23781 -0.232527 -0.234961 -0.23781 -0.246221 -0.222654 -0.23781 -0.212872 -0.235215 -0.23781 -0.246221 -0.235215 -0.249677 -0.212872 -0.235215 -0.195184 -0.220446 -0.235215 -0.249677 -0.220446 -0.245708 -0.169843 -0.199938 -0.150031 -0.184572 -0.199938 -0.222654 -0.184572 -0.212872 -0.150031 -0.184572 -0.130218 -0.162701 -0.184572 -0.212872 -0.162701 -0.195184 -0.189909 -0.208365 -0.183073 -0.207707 -0.208365 -0.217817 -0.207707 -0.224001 -0.183073 -0.207707 -0.169843 -0.199938 -0.207707 -0.224001 -0.199938 -0.222654 0.0454586 0.0572948 0.060442 0.073644 0.0572948 0.06996 0.073644 0.0875359 0.060442 0.073644 0.0747109 0.0894076 0.073644 0.0875359 0.0894076 0.104104 0.06996 0.0840757 0.0875359 0.102469 0.0840757 0.100587 0.102469 0.119342 0.0875359 0.102469 0.104104 0.120669 0.102469 0.119342 0.120669 0.137234 -0.0866227 -0.0746513 -0.0781487 -0.0649279 -0.0746513 -0.0631258 -0.0649279 -0.0527073 -0.0781487 -0.0649279 -0.0691647 -0.0563719 -0.0649279 -0.0527073 -0.0563719 -0.043579 -0.111007 -0.098884 -0.106292 -0.0918209 -0.098884 -0.0866227 -0.0918209 -0.0781487 -0.106292 -0.0918209 -0.0976405 -0.0834026 -0.0918209 -0.0781487 -0.0834026 -0.0691647 -0.0909067 -0.0872639 -0.107202 -0.0989917 -0.0872639 -0.0825464 -0.0989917 -0.0900218 -0.107202 -0.0989917 -0.111007 -0.098884 -0.0989917 -0.0900218 -0.098884 -0.0866227 -0.0825464 -0.0771176 -0.0900218 -0.0807055 -0.0771176 -0.07129 -0.0807055 -0.0713795 -0.0900218 -0.0807055 -0.0866227 -0.0746513 -0.0807055 -0.0713795 -0.0746513 -0.0631258 0.0398891 0.109413 0.00533788 0.0566626 0.109413 0.157506 0.0566626 0.0978726 0.00533788 0.0566626 -0.0144038 0.0227173 0.0566626 0.0978726 0.0227173 0.0588237 -0.0144038 0.0227173 -0.025645 0.000414888 0.0227173 0.0588237 0.000414888 0.0324221 -0.025645 0.000414888 -0.031684 -0.0144083 0.000414888 0.0324221 -0.0144083 0.0138629 0 -0.0183078 0 -0.0187001 -0.0183078 -0.014403