# vtk DataFile Version 3.0
#This file was generated by the deal.II library on 2020/11/19 at 14:55:02
ASCII
DATASET UNSTRUCTURED_GRID

POINTS 4428 double
0.125 0.124999 0
0.125 0.0833324 0
0.166666 0.124998 0
0.166667 0.0833322 0
0.125 0.166665 0
0.125 0.124999 0
0.166666 0.166664 0
0.166666 0.124998 0
0.0833332 0.166666 0
0.0833332 0.124999 0
0.125 0.166665 0
0.125 0.124999 0
0.0833332 0.124999 0
0.0833333 0.0833327 0
0.125 0.124999 0
0.125 0.0833324 0
0.458332 0.541659 0
0.499999 0.541659 0
0.458332 0.583326 0
0.499999 0.583326 0
0.416666 0.541659 0
0.458332 0.541659 0
0.416666 0.583326 0
0.458332 0.583326 0
0.416666 0.499992 0
0.458332 0.499992 0
0.416666 0.541659 0
0.458332 0.541659 0
0.458332 0.499992 0
0.499999 0.499992 0
0.458332 0.541659 0
0.499999 0.541659 0
0.541666 0.624993 0
0.583332 0.624993 0
0.541666 0.66666 0
0.583332 0.66666 0
0.499999 0.624993 0
0.541666 0.624993 0
0.499999 0.66666 0
0.541666 0.66666 0
0.499999 0.583326 0
0.541666 0.583326 0
0.499999 0.624993 0
0.541666 0.624993 0
0.541666 0.583326 0
0.583332 0.583326 0
0.541666 0.624993 0
0.583332 0.624993 0
0.499999 0.541659 0
0.541666 0.541659 0
0.499999 0.583326 0
0.541666 0.583326 0
0.499999 0.499992 0
0.541666 0.499992 0
0.499999 0.541659 0
0.541666 0.541659 0
0.541666 0.499992 0
0.583332 0.499992 0
0.541666 0.541659 0
0.583332 0.541659 0
0.541666 0.541659 0
0.583332 0.541659 0
0.541666 0.583326 0
0.583332 0.583326 0
0.499999 0.458326 0
0.499999 0.416659 0
0.541666 0.458326 0
0.541666 0.416659 0
0.541666 0.458326 0
0.541666 0.416659 0
0.583332 0.458326 0
0.583332 0.416659 0
0.541666 0.499992 0
0.541666 0.458326 0
0.583332 0.499992 0
0.583332 0.458326 0
0.499999 0.499992 0
0.499999 0.458326 0
0.541666 0.499992 0
0.541666 0.458326 0
0.208333 0.20833 0
0.166666 0.208331 0
0.208333 0.166664 0
0.166666 0.166664 0
0.25 0.20833 0
0.208333 0.20833 0
0.25 0.166664 0
0.208333 0.166664 0
0.249999 0.249996 0
0.208333 0.249996 0
0.25 0.20833 0
0.208333 0.20833 0
0.208333 0.249996 0
0.166666 0.249997 0
0.208333 0.20833 0
0.166666 0.208331 0
0.291666 0.874997 0
0.25 0.874998 0
0.291666 0.83333 0
0.25 0.83333 0
0.333333 0.874997 0
0.291666 0.874997 0
0.333333 0.83333 0
0.291666 0.83333 0
0.499999 0.374993 0
0.541666 0.374993 0
0.499999 0.416659 0
0.541666 0.416659 0
0.499999 0.333326 0
0.541666 0.333326 0
0.499999 0.374993 0
0.541666 0.374993 0
0.541666 0.333326 0
0.583332 0.333327 0
0.541666 0.374993 0
0.583332 0.374993 0
0.541666 0.374993 0
0.583332 0.374993 0
0.541666 0.416659 0
0.583332 0.416659 0
0.458332 0.499992 0
0.458332 0.458326 0
0.499999 0.499992 0
0.499999 0.458326 0
0.416666 0.499992 0
0.416666 0.458326 0
0.458332 0.499992 0
0.458332 0.458326 0
0.416666 0.458326 0
0.416666 0.416659 0
0.458332 0.458326 0
0.458332 0.416659 0
0.458332 0.458326 0
0.458332 0.416659 0
0.499999 0.458326 0
0.499999 0.416659 0
0.708333 0.166663 0
0.708333 0.124997 0
0.75 0.166664 0
0.75 0.124998 0
0.666666 0.166663 0
0.666666 0.124997 0
0.708333 0.166663 0
0.708333 0.124997 0
0.666666 0.124997 0
0.666666 0.0833314 0
0.708333 0.124997 0
0.708333 0.0833316 0
0.708333 0.124997 0
0.708333 0.0833316 0
0.75 0.124998 0
0.75 0.0833317 0
0.499999 0.29166 0
0.499999 0.249994 0
0.541666 0.29166 0
0.541666 0.249994 0
0.541666 0.29166 0
0.541666 0.249994 0
0.583333 0.29166 0
0.583333 0.249994 0
0.541666 0.333326 0
0.541666 0.29166 0
0.583332 0.333327 0
0.583333 0.29166 0
0.499999 0.333326 0
0.499999 0.29166 0
0.541666 0.333326 0
0.541666 0.29166 0
0.125 0.208331 0
0.125 0.166665 0
0.166666 0.208331 0
0.166666 0.166664 0
0.125 0.249998 0
0.125 0.208331 0
0.166666 0.249997 0
0.166666 0.208331 0
0.0833331 0.249998 0
0.0833331 0.208332 0
0.125 0.249998 0
0.125 0.208331 0
0.0833331 0.208332 0
0.0833332 0.166666 0
0.125 0.208331 0
0.125 0.166665 0
0.249999 0.458327 0
0.208333 0.458328 0
0.249999 0.416661 0
0.208333 0.416662 0
0.249999 0.499994 0
0.208333 0.499995 0
0.249999 0.458327 0
0.208333 0.458328 0
0.208333 0.499995 0
0.166666 0.499996 0
0.208333 0.458328 0
0.166666 0.458329 0
0.208333 0.458328 0
0.166666 0.458329 0
0.208333 0.416662 0
0.166666 0.416662 0
0.708333 0.458327 0
0.708333 0.41666 0
0.749999 0.458328 0
0.749999 0.416661 0
0.708332 0.499994 0
0.708333 0.458327 0
0.749999 0.499994 0
0.749999 0.458328 0
0.666666 0.499993 0
0.666666 0.458327 0
0.708332 0.499994 0
0.708333 0.458327 0
0.666666 0.458327 0
0.666666 0.41666 0
0.708333 0.458327 0
0.708333 0.41666 0
0.416666 0.583326 0
0.458332 0.583326 0
0.416666 0.624993 0
0.458332 0.624993 0
0.458332 0.583326 0
0.499999 0.583326 0
0.458332 0.624993 0
0.499999 0.624993 0
0.458332 0.624993 0
0.499999 0.624993 0
0.458332 0.66666 0
0.499999 0.66666 0
0.416666 0.624993 0
0.458332 0.624993 0
0.416666 0.66666 0
0.458332 0.66666 0
0.458333 0.708327 0
0.499999 0.708327 0
0.458333 0.749994 0
0.499999 0.749994 0
0.416666 0.708327 0
0.458333 0.708327 0
0.416666 0.749994 0
0.458333 0.749994 0
0.416666 0.66666 0
0.458332 0.66666 0
0.416666 0.708327 0
0.458333 0.708327 0
0.458332 0.66666 0
0.499999 0.66666 0
0.458333 0.708327 0
0.499999 0.708327 0
0.208333 0.874998 0
0.166666 0.874998 0
0.208333 0.833331 0
0.166666 0.833331 0
0.25 0.874998 0
0.208333 0.874998 0
0.25 0.83333 0
0.208333 0.833331 0
0 0.875 0
0 0.833333 0
0.0416666 0.875 0
0.0416666 0.833333 0
0.0416666 0.875 0
0.0416666 0.833333 0
0.0833332 0.874999 0
0.0833332 0.833332 0
0.458332 0.333326 0
0.499999 0.333326 0
0.458332 0.374993 0
0.499999 0.374993 0
0.458332 0.374993 0
0.499999 0.374993 0
0.458332 0.416659 0
0.499999 0.416659 0
0.416666 0.374993 0
0.458332 0.374993 0
0.416666 0.416659 0
0.458332 0.416659 0
0.416666 0.333327 0
0.458332 0.333326 0
0.416666 0.374993 0
0.458332 0.374993 0
0.125 0.45833 0
0.125 0.416663 0
0.166666 0.458329 0
0.166666 0.416662 0
0.125 0.499997 0
0.125 0.45833 0
0.166666 0.499996 0
0.166666 0.458329 0
0.083333 0.499998 0
0.083333 0.458331 0
0.125 0.499997 0
0.125 0.45833 0
0.083333 0.458331 0
0.083333 0.416664 0
0.125 0.45833 0
0.125 0.416663 0
0.375 0.874997 0
0.333333 0.874997 0
0.374999 0.83333 0
0.333333 0.83333 0
0.416666 0.874997 0
0.375 0.874997 0
0.416666 0.833329 0
0.374999 0.83333 0
0.374999 0.374993 0
0.374999 0.416659 0
0.333332 0.374993 0
0.333332 0.41666 0
0.374999 0.333327 0
0.374999 0.374993 0
0.333333 0.333327 0
0.333332 0.374993 0
0.416666 0.333327 0
0.416666 0.374993 0
0.374999 0.333327 0
0.374999 0.374993 0
0.416666 0.374993 0
0.416666 0.416659 0
0.374999 0.374993 0
0.374999 0.416659 0
0.791666 0.791664 0
0.791666 0.833331 0
0.75 0.791663 0
0.75 0.83333 0
0.791666 0.749997 0
0.791666 0.791664 0
0.749999 0.749996 0
0.75 0.791663 0
0.291666 0.624994 0
0.291666 0.666661 0
0.249999 0.624995 0
0.249999 0.666662 0
0.291666 0.583327 0
0.291666 0.624994 0
0.249999 0.583328 0
0.249999 0.624995 0
0.333332 0.583326 0
0.333332 0.624994 0
0.291666 0.583327 0
0.291666 0.624994 0
0.333332 0.624994 0
0.333333 0.666661 0
0.291666 0.624994 0
0.291666 0.666661 0
0.416666 0.333327 0
0.374999 0.333327 0
0.416666 0.29166 0
0.374999 0.291661 0
0.374999 0.333327 0
0.333333 0.333327 0
0.374999 0.291661 0
0.333333 0.291661 0
0.374999 0.291661 0
0.333333 0.291661 0
0.374999 0.249995 0
0.333333 0.249995 0
0.416666 0.29166 0
0.374999 0.291661 0
0.416666 0.249994 0
0.374999 0.249995 0
0.624999 0.66666 0
0.624999 0.708328 0
0.583332 0.66666 0
0.583333 0.708327 0
0.666666 0.666661 0
0.666666 0.708328 0
0.624999 0.66666 0
0.624999 0.708328 0
0.666666 0.708328 0
0.666666 0.749995 0
0.624999 0.708328 0
0.624999 0.749995 0
0.624999 0.708328 0
0.624999 0.749995 0
0.583333 0.708327 0
0.583333 0.749995 0
0.0416666 0.125 0
0.0416666 0.083333 0
0.0833332 0.124999 0
0.0833333 0.0833327 0
0.0416666 0.166666 0
0.0416666 0.125 0
0.0833332 0.166666 0
0.0833332 0.124999 0
0 0.166667 0
0 0.125 0
0.0416666 0.166666 0
0.0416666 0.125 0
0 0.125 0
0 0.0833333 0
0.0416666 0.125 0
0.0416666 0.083333 0
0.0833332 0.874999 0
0.0833332 0.833332 0
0.125 0.874999 0
0.125 0.833332 0
0.125 0.874999 0
0.125 0.833332 0
0.166666 0.874998 0
0.166666 0.833331 0
0.541667 0.0416655 0
0.541667 0 0
0.583333 0.0416656 0
0.583333 0 0
0.541666 0.0833311 0
0.541667 0.0416655 0
0.583333 0.0833311 0
0.583333 0.0416656 0
0.5 0.0833311 0
0.5 0.0416655 0
0.541666 0.0833311 0
0.541667 0.0416655 0
0.5 0.0416655 0
0.5 0 0
0.541667 0.0416655 0
0.541667 0 0
0.666666 0.374994 0
0.708333 0.374994 0
0.666666 0.41666 0
0.708333 0.41666 0
0.666666 0.333327 0
0.708333 0.333328 0
0.666666 0.374994 0
0.708333 0.374994 0
0.708333 0.333328 0
0.749999 0.333328 0
0.708333 0.374994 0
0.749999 0.374995 0
0.708333 0.374994 0
0.749999 0.374995 0
0.708333 0.41666 0
0.749999 0.416661 0
0.666666 0.208329 0
0.666666 0.166663 0
0.708333 0.208329 0
0.708333 0.166663 0
0.708333 0.208329 0
0.708333 0.166663 0
0.75 0.20833 0
0.75 0.166664 0
0.333333 0.333327 0
0.333332 0.374993 0
0.291666 0.333328 0
0.291666 0.374994 0
0.333332 0.374993 0
0.333332 0.41666 0
0.291666 0.374994 0
0.291666 0.41666 0
0.291666 0.374994 0
0.291666 0.41666 0
0.249999 0.374994 0
0.249999 0.416661 0
0.291666 0.333328 0
0.291666 0.374994 0
0.249999 0.333328 0
0.249999 0.374994 0
0.666666 0.166663 0
0.624999 0.166663 0
0.666666 0.124997 0
0.625 0.124997 0
0.624999 0.166663 0
0.583333 0.166663 0
0.625 0.124997 0
0.583333 0.124997 0
0.625 0.124997 0
0.583333 0.124997 0
0.625 0.0833312 0
0.583333 0.0833311 0
0.666666 0.124997 0
0.625 0.124997 0
0.666666 0.0833314 0
0.625 0.0833312 0
0 0.0833333 0
0 0.0416667 0
0.0416666 0.083333 0
0.0416666 0.0416665 0
0 0.0416667 0
0 0 0
0.0416666 0.0416665 0
0.0416667 0 0
0.0416666 0.0416665 0
0.0416667 0 0
0.0833333 0.0416664 0
0.0833333 0 0
0.0416666 0.083333 0
0.0416666 0.0416665 0
0.0833333 0.0833327 0
0.0833333 0.0416664 0
0.791666 0.124998 0
0.75 0.124998 0
0.791666 0.083332 0
0.75 0.0833317 0
0.833333 0.124998 0
0.791666 0.124998 0
0.833333 0.0833322 0
0.791666 0.083332 0
0.833333 0.166665 0
0.791666 0.166664 0
0.833333 0.124998 0
0.791666 0.124998 0
0.791666 0.166664 0
0.75 0.166664 0
0.791666 0.124998 0
0.75 0.124998 0
0.875 0.291664 0
0.833333 0.291663 0
0.875 0.249998 0
0.833333 0.249997 0
0.916666 0.291665 0
[...]
POINT_DATA 4428
SCALARS solution_0 double 1
LOOKUP_TABLE default
-0.0252753 -0.00937535 -0.0456731 -0.0209802 -0.0436176 -0.0252753 -0.0722769 -0.0456731 -0.0212169 -0.0108426 -0.0436176 -0.0252753 -0.0108426 -0.00286129 -0.0252753 -0.00937535 -0.0155158 -0.0191972 0.0216442 0.0183344 -0.0123317 -0.0155158 0.024197 0.0216442 -0.0481981 -0.0518218 -0.0123317 -0.0155158 -0.0518218 -0.0557278 -0.0155158 -0.0191972 0.0524876 0.0466825 0.0920584 0.0859819 0.0567162 0.0524876 0.0961046 0.0920584 0.0183344 0.0140246 0.0567162 0.0524876 0.0140246 0.00861018 0.0524876 0.0466825 -0.0191972 -0.0234762 0.0183344 0.0140246 -0.0557278 -0.0598544 -0.0191972 -0.0234762 -0.0598544 -0.0641447 -0.0234762 -0.0283775 -0.0234762 -0.0283775 0.0140246 0.00861018 -0.0909718 -0.124942 -0.0947795 -0.128169 -0.0947795 -0.128169 -0.098361 -0.130979 -0.0598544 -0.0947795 -0.0641447 -0.098361 -0.0557278 -0.0909718 -0.0598544 -0.0947795 -0.13349 -0.0953997 -0.10606 -0.0722769 -0.171933 -0.13349 -0.142598 -0.10606 -0.184874 -0.14894 -0.171933 -0.13349 -0.14894 -0.110573 -0.13349 -0.0953997 0.176926 0.137253 0.179003 0.14743 0.211532 0.176926 0.205752 0.179003 -0.158756 -0.161179 -0.124942 -0.128169 -0.194936 -0.196808 -0.158756 -0.161179 -0.196808 -0.199165 -0.161179 -0.163455 -0.161179 -0.163455 -0.128169 -0.130979 -0.0518218 -0.0871081 -0.0557278 -0.0909718 -0.0481981 -0.0834279 -0.0518218 -0.0871081 -0.0834279 -0.118426 -0.0871081 -0.121573 -0.0871081 -0.121573 -0.0909718 -0.124942 -0.195308 -0.12799 -0.146567 -0.08756 -0.234088 -0.165761 -0.195308 -0.12799 -0.165761 -0.0973291 -0.12799 -0.0683653 -0.12799 -0.0683653 -0.08756 -0.0409051 -0.234869 -0.273618 -0.237 -0.276441 -0.237 -0.276441 -0.240121 -0.278419 -0.196808 -0.237 -0.199165 -0.240121 -0.194936 -0.234869 -0.196808 -0.237 -0.0607569 -0.0436176 -0.0953997 -0.0722769 -0.0732508 -0.0607569 -0.110573 -0.0953997 -0.0397654 -0.0315982 -0.0732508 -0.0607569 -0.0315982 -0.0212169 -0.0607569 -0.0436176 -0.0700394 -0.0625555 -0.103464 -0.0920781 -0.0364323 -0.0320203 -0.0700394 -0.0625555 -0.0320203 -0.0255068 -0.0625555 -0.0511716 -0.0625555 -0.0511716 -0.0920781 -0.0751886 -0.106634 -0.138227 -0.110435 -0.144342 -0.0763897 -0.106634 -0.0801351 -0.110435 -0.0726561 -0.104223 -0.0763897 -0.106634 -0.104223 -0.135319 -0.106634 -0.138227 0.024197 0.0216442 0.0613954 0.0595689 0.0216442 0.0183344 0.0595689 0.0567162 0.0595689 0.0567162 0.0984135 0.0961046 0.0613954 0.0595689 0.099366 0.0984135 0.138366 0.13682 0.178977 0.178704 0.138036 0.138366 0.176534 0.178977 0.099366 0.0984135 0.138036 0.138366 0.0984135 0.0961046 0.138366 0.13682 0.09465 0.0528079 0.112428 0.0762599 0.137253 0.09465 0.14743 0.112428 0 0 -0.00580851 0.0027292 -0.00580851 0.0027292 -0.00368236 0.0163718 -0.193441 -0.194936 -0.156363 -0.158756 -0.156363 -0.158756 -0.121573 -0.124942 -0.154272 -0.156363 -0.118426 -0.121573 -0.192154 -0.193441 -0.154272 -0.156363 -0.0362209 -0.0538784 -0.0511716 -0.0751886 -0.0167544 -0.0362209 -0.0255068 -0.0511716 -0.00674668 -0.0192962 -0.0167544 -0.0362209 -0.0192962 -0.0305327 -0.0362209 -0.0538784 0.239973 0.211532 0.227002 0.205752 0.261845 0.239973 0.242646 0.227002 -0.152459 -0.115768 -0.150068 -0.11334 -0.190377 -0.152459 -0.186444 -0.150068 -0.192154 -0.154272 -0.190377 -0.152459 -0.154272 -0.118426 -0.152459 -0.115768 0.107364 0.140545 0.139028 0.174596 0.0776475 0.107364 0.104748 0.139028 0.0624279 0.0946801 0.0599159 0.0886656 0.0290071 0.0624279 0.0289751 0.0599159 0.0279517 0.0630343 0.0290071 0.0624279 0.0630343 0.0978959 0.0624279 0.0946801 -0.192154 -0.190377 -0.231038 -0.226895 -0.190377 -0.186444 -0.226895 -0.218481 -0.226895 -0.218481 -0.254466 -0.238575 -0.231038 -0.226895 -0.264291 -0.254466 0.0777128 0.117757 0.0859819 0.126826 0.0671695 0.105632 0.0777128 0.117757 0.105632 0.145582 0.117757 0.159374 0.117757 0.159374 0.126826 0.169229 -0.00242438 -6.77171e-05 -0.0108426 -0.00286129 -0.00571871 -0.00242438 -0.0212169 -0.0108426 0 0 -0.00571871 -0.00242438 0 0 -0.00242438 -6.77171e-05 -0.00368236 0.0163718 0.0175447 0.0424823 0.0175447 0.0424823 0.0528079 0.0762599 -0.0848226 0 -0.0754409 0 -0.157326 -0.0848226 -0.14421 -0.0754409 -0.162181 -0.0877343 -0.157326 -0.0848226 -0.0877343 0 -0.0848226 0 -0.16883 -0.174144 -0.135319 -0.138227 -0.207604 -0.214621 -0.16883 -0.174144 -0.214621 -0.221568 -0.174144 -0.182604 -0.174144 -0.182604 -0.138227 -0.144342 -0.281978 -0.234088 -0.251727 -0.195308 -0.251727 -0.195308 -0.206393 -0.146567 -0.186444 -0.150068 -0.177871 -0.145142 -0.150068 -0.11334 -0.145142 -0.109921 -0.145142 -0.109921 -0.135216 -0.103464 -0.177871 -0.145142 -0.162406 -0.135216 -0.234088 -0.261523 -0.165761 -0.196179 -0.261523 -0.278334 -0.196179 -0.217551 -0.196179 -0.217551 -0.123646 -0.14421 -0.165761 -0.196179 -0.0973291 -0.123646 0 0 -6.77171e-05 -0.000986194 0 0 -0.000986194 0 -0.000986194 0 0.00129898 0 -6.77171e-05 -0.000986194 -0.00286129 0.00129898 -0.0508368 -0.08756 -0.0189214 -0.0409051 -0.0231508 -0.0508368 -0.00471541 -0.0189214 -0.0509112 -0.0954756 -0.0231508 -0.0508368 -0.0954756 -0.146567 -0.0508368 -0.08756 -0.0996985 -0.172537 -0.0681769 -0.131838 -0.0388559 -0.0996985 -0.0226685 -0.0681769 -0.180614 -0.150454 -0.184874 -0.14894 -0.162406 -0.139278 -0.180614 -0.150454 -0.139278 -0.109786 -0.150454 -0.115375 -0.150454 -0.115375 -0.14894 -0.110573 0.0493814 0.0776475 0.0714248 0.104748 0.0220058 0.0493814 0.0392297 0.0714248 -0.00120018 0.0020048 0 0 0 -0.00120018 0 0 0 0.00091511 0 -0.00120018 0.00091511 0.00224391 -0.00120018 0.0020048 -0.147859 -0.206393 -0.0954756 -0.146567 -0.0888021 -0.147859 -0.0509112 -0.0954756 -0.131838 -0.198777 -0.0888021 -0.147859 -0.191558 -0.154332 -0.182604 -0.144342 -0.0440761 -0.0397654 -0.0788354 -0.0732508 -0.0788354 -0.0732508 -0.115375 -0.110573 -0.0768043 -0.0788354 -0.109786 -0.115375 -0.043791 -0.0440761 -0.0768043 -0.0788354 -0.118624 -0.0920781 -0.0955505 -0.0751886 -0.139278 -0.118624 -0.109786 -0.0955505 -0.162406 -0.135216 -0.139278 -0.118624 -0.135216 -0.103464 -0.118624 -0.0920781 0.188434 0.205752 0.169338 0.179003 0.169338 0.179003 0.145668 0.14743 0.150277 0.169338 0.133643 0.145668 0.162704 0.188434 0.150277 0.169338 -0.039077 -0.0680027 -0.0305327 -0.0538784 -0.043791 -0.0768043 -0.039077 -0.0680027 -0.0768043 -0.109786 -0.0680027 -0.0955505 -0.0680027 -0.0955505 -0.0538784 -0.0751886 0.0886656 0.113867 0.0793471 0.0993569 0.113867 0.133643 0.0993569 0.113077 0.0993569 0.113077 0.0815052 0.0891713 0.0793471 0.0993569 0.0670347 0.0815052 -0.104223 -0.101557 -0.135319 -0.133273 -0.0726561 -0.0684874 -0.104223 -0.101557 -0.0684874 -0.0641447 -0.101557 -0.098361 -0.101557 -0.098361 -0.133273 -0.130979 -0.0138973 -0.0122723 -0.0440761 -0.0397654 -0.0128703 -0.0138973 -0.043791 -0.0440761 0 0 -0.0128703 -0.0138973 0 0 -0.0138973 -0.0122723 0.118183 0.112428 0.0879963 0.0762599 0.113077 0.118183 0.0891713 0.0879963 0.133643 0.145668 0.113077 0.118183 0.145668 0.14743 0.118183 0.112428 -0.0394847 -0.0364323 -0.0744676 -0.0700394 -0.0744676 -0.0700394 -0.109921 -0.103464 -0.0774005 -0.0744676 -0.11334 -0.109921 -0.0421099 -0.0394847 -0.0774005 -0.0744676 -0.0122723 -0.00929635 -0.0397654 -0.0315982 0 0 -0.0122723 -0.00929635 0 0 -0.00929635 -0.00571871 -0.00929635 -0.00571871 -0.0315982 -0.0212169 -0.177871 -0.162406 -0.203474 -0.180614 -0.203474 -0.180614 -0.215332 -0.184874 -0.218481 -0.203474 -0.238575 -0.215332 -0.186444 -0.177871 -0.218481 -0.203474 0.0543163 0.0392297 0.0902284 0.0714248 0.0902284 0.0714248 0.127447 0.104748 0.105632 0.0902284 0.145582 0.127447 0.0671695 0.0543163 0.105632 0.0902284 0.02732 0.0386418 0.0329902 0.0520342 0.0176719 0.0219247 0.02732 0.0386418 0.0219247 0.0250745 0.0386418 0.0477266 0.0386418 0.0477266 0.0520342 0.0670347 0.212619 0.242646 0.202768 0.227002 0.202768 0.227002 0.188434 0.205752 0.171254 0.202768 0.162704 0.188434 0.176534 0.212619 0.171254 0.202768 -0.273618 -0.297131 -0.276441 -0.301036 -0.297131 -0.284516 -0.301036 -0.286315 0 0.0101236 0 0.0111963 0.0101236 0.02732 0.0111963 0.0329902 -0.0867261 -0.0801351 -0.118757 -0.110435 -0.118757 -0.110435 -0.154332 -0.144342 -0.0989168 -0.0867261 -0.131135 -0.118757 -0.0989168 -0.0695666 -0.0867261 -0.0580078 -0.0695666 -0.0435573 -0.0580078 -0.0308963 -0.0580078 -0.0308963 -0.0511522 -0.0220445 -0.0867261 -0.0580078 -0.0801351 -0.0511522 -0.0973291 -0.0430977 -0.0683653 -0.0254255 -0.0430977 0 -0.0254255 0 -0.0254255 0 -0.0106467 0 -0.0683653 -0.0254255 -0.0409051 -0.0106467 -0.00471541 -0.0189214 0.00412056 -0.000656904 -0.0189214 -0.0409051 -0.000656904 -0.0106467 -0.000656904 -0.0106467 0 0 0.00412056 -0.000656904 0 0 -0.147635 -0.12979 -0.075188 -0.0625678 -0.12979 -0.107267 -0.0625678 -0.0483038 -0.0625678 -0.0483038 0 0 -0.075188 -0.0625678 0 0 0.176534 0.178977 0.212619 0.218351 0.178977 0.178704 0.218351 0.220206 0.218351 0.220206 0.252846 0.25782 0.212619 0.218351 0.242646 0.252846 0.030254 0.0198007 0.0671695 0.0543163 -0.00531517 -0.0134611 0.030254 0.0198007 -0.0134611 -0.0220445 0.0198007 0.0080801 0.0198007 0.0080801 0.0543163 0.0392297 -0.207505 -0.171933 -0.178764 -0.142598 -0.237774 -0.207505 -0.211701 -0.178764 -0.238575 -0.215332 -0.237774 -0.207505 -0.215332 -0.184874 -0.207505 -0.171933 -0.00465731 0.0220058 0.0080801 0.0392297 -0.0308963 -0.00465731 -0.0220445 0.0080801 -0.0430977 -0.0607635 0 0 -0.0973291 -0.123646 -0.0430977 -0.0607635 -0.123646 -0.14421 -0.0607635 -0.0754409 -0.0607635 -0.0754409 0 0 -0.0449462 -0.0421099 -0.080186 -0.0774005 -0.080186 -0.0774005 -0.115768 -0.11334 -0.0834279 -0.080186 -0.118426 -0.115768 -0.0481981 -0.0449462 -0.0834279 -0.080186 -0.0338316 0.00212045 -0.0283775 0.00861018 -0.0684874 -0.0338316 -0.0641447 -0.0283775 -0.0726561 -0.0396562 -0.0684874 -0.0338316 -0.0396562 -0.00531517 -0.0338316 0.00212045 0.00450118 0.00412056 0 0 0.0020048 0.00450118 0 0 0.00224391 0.00166 0.0020048 0.00450118 0.00166 -0.00471541 0.00450118 0.00412056 -0.232145 -0.162181 -0.229247 -0.157326 -0.229247 -0.157326 -0.217551 -0.14421 -0.286315 -0.229247 -0.278334 -0.217551 -0.284516 -0.232145 -0.286315 -0.229247 -0.278676 -0.261017 -0.290176 -0.276084 -0.290176 -0.276084 -0.297131 -0.284516 -0.270061 -0.290176 -0.273618 -0.297131 -0.264291 -0.278676 -0.270061 -0.290176 -0.20255 -0.165734 -0.199165 -0.163455 -0.207604 -0.16883 -0.20255 -0.165734 -0.16883 -0.135319 -0.165734 -0.133273 -0.165734 -0.133273 -0.163455 -0.130979 -0.0481981 -0.0123317 -0.0449462 -0.00953218 -0.0123317 0.024197 -0.00953218 0.026268 -0.00953218 0.026268 -0.00707916 0.0279517 -0.0449462 -0.00953218 -0.0421099 -0.00707916 -0.011554 -0.0402575 -0.00482163 -0.0201733 -0.0226685 -0.0681769 -0.011554 -0.0402575 -0.0681769 -0.131838 -0.0402575 -0.0888021 -0.0402575 -0.0888021 -0.0201733 -0.0509112 -0.244103 -0.240121 -0.28086 -0.278419 -0.249118 -0.244103 -0.281283 -0.28086 -0.207604 -0.20255 -0.249118 -0.244103 -0.20255 -0.199165 -0.244103 -0.240121 0.0613954 0.099366 0.0625362 0.0992353 0.0625362 0.0992353 0.0630343 0.0978959 0.026268 0.0625362 0.0279517 0.0630343 0.024197 0.0613954 0.026268 0.0625362 -0.0396562 -0.0455312 -0.00531517 -0.0134611 -0.0726561 -0.0763897 -0.0396562 -0.0455312 -0.0763897 -0.0801351 -0.0455312 -0.0511522 -0.0455312 -0.0511522 -0.0134611 -0.0220445 -0.193441 -0.233178 -0.194936 -0.234869 -0.192154 -0.231038 -0.193441 -0.233178 -0.231038 -0.264291 -0.233178 -0.270061 -0.233178 -0.270061 -0.234869 -0.273618 0.0599159 0.0886656 0.0549391 0.0793471 0.0549391 0.0793471 0.0477266 0.0670347 0.0275728 0.0549391 0.0250745 0.0477266 0.0289751 0.0599159 0.0275728 0.0549391 0.138036 0.176534 0.135918 0.171254 0.135918 0.171254 0.131682 0.162704 0.0992353 0.135918 0.0978959 0.131682 0.099366 0.138036 0.0992353 0.135918 -0.00531517 0.030254 0.00212045 0.0392551 0.030254 0.0671695 0.0392551 0.0777128 0.0392551 0.0777128 0.0466825 0.0859819 0.00212045 0.0392551 0.00861018 0.0466825 -0.207604 -0.249118 -0.214621 -0.253031 0.00066437 -0.000131717 0.00091511 0.00224391 0 0.00066437 0 0.00091511 0 -0.000340438 0 0.00066437 -0.000340438 -0.00482163 0.00066437 -0.000131717 0.0961046 0.0920584 0.13682 0.133084 0.0920584 0.0859819 0.133084 0.126826 0.133084 0.126826 0.175554 0.169229 0.13682 0.133084 0.178704 0.175554 0.131682 0.162704 0.124583 0.150277 0.124583 0.150277 0.113867 0.133643 0.0946801 0.124583 0.0886656 0.113867 0.0978959 0.131682 0.0946801 0.124583 0.261845 0.242646 0.27715 0.252846 0.27715 0.252846 0.286078 0.25782 -0.0016908 0.0275728 0.000294921 0.0250745 -0.0320203 -0.0016908 -0.0255068 0.000294921 -0.0364323 -0.00330282 -0.0320203 -0.0016908 -0.00330282 0.0289751 -0.0016908 0.0275728 -0.0421099 -0.00707916 -0.0394847 -0.00501235 -0.00707916 0.0279517 -0.00501235 0.0290071 -0.00501235 0.0290071 -0.00330282 0.0289751 -0.0394847 -0.00501235 -0.0364323 -0.00330282 -0.00676851 -0.0231508 0.00166 -0.00471541 -0.000131717 -0.00676851 0.00224391 0.00166 -0.00482163 -0.0201733 -0.000131717 -0.00676851 -0.0201733 -0.0509112 -0.00676851 -0.0231508 -0.254466 -0.238575 -0.261508 -0.237774 -0.261508 -0.237774 -0.239452 -0.211701 -0.278676 -0.261508 -0.261017 -0.239452 -0.264291 -0.254466 -0.278676 -0.261508 -0.147635 -0.075188 -0.158825 -0.0841612 -0.075188 0 -0.0841612 0 -0.0841612 0 -0.0877343 0 -0.158825 -0.0841612 -0.162181 -0.0877343 0.21818 0.212089 0.257654 0.252271 0.220206 0.21818 0.25782 0.257654 0.178704 0.175554 0.220206 0.21818 0.175554 0.169229 0.21818 0.212089 -0.0376483 -0.0209802 -0.0111345 -0.00347727 -0.0111345 -0.00347727 0 0 -0.0215437 -0.0111345 0 0 -0.0586916 -0.0376483 -0.0215437 -0.0111345 -0.107267 -0.0826563 -0.0483038 -0.0341939 -0.0826563 -0.0586916 -0.0341939 -0.0215437 -0.0341939 -0.0215437 0 0 -0.0483038 -0.0341939 0 0 0.20156 0.241501 0.212089 0.252271 0.159374 0.20156 0.169229 0.212089 0.145582 0.186105 0.159374 0.20156 0.186105 0.225193 0.20156 0.241501 -0.211701 -0.178764 -0.164975 -0.134232 -0.178764 -0.142598 -0.134232 -0.102143 -0.134232 -0.102143 -0.0826563 -0.0586916 -0.164975 -0.134232 -0.107267 -0.0826563 -0.239452 -0.211701 -0.191687 -0.164975 -0.191687 -0.164975 -0.12979 -0.107267 -0.212498 -0.191687 -0.147635 -0.12979 -0.261017 -0.239452 -0.212498 -0.191687 0.0058651 0.00307924 0.0176719 0.0219247 -0.00674668 -0.0167544 0.0058651 0.00307924 -0.0167544 -0.0255068 0.00307924 0.000294921 0.00307924 0.000294921 0.0219247 0.0250745 -0.276084 -0.226263 -0.284516 -0.232145 -0.261017 -0.212498 -0.276084 -0.226263 -0.212498 -0.147635 -0.226263 -0.158825 -0.226263 -0.158825 -0.232145 -0.162181 -0.00286129 0.00129898 -0.00937535 0.000825213 0.00129898 0 0.000825213 0 0.000825213 0 -0.00347727 0 -0.00937535 0.000825213 -0.0209802 -0.00347727 -0.00119503 -0.011554 -0.000340438 -0.00482163 0 -0.00119503 0 -0.000340438 0.0352877 0.060281 0.0334456 0.0621875 0.0329902 0.0520342 0.0352877 0.060281 0.0520342 0.0670347 0.060281 0.0815052 0.060281 0.0815052 0.0621875 0.0891713 0.165342 0.139028 0.202851 0.174596 0.186105 0.165342 0.225193 0.202851 0.145582 0.127447 0.186105 0.165342 0.127447 0.104748 0.165342 0.139028 0.0334456 0.0621875 0.0273529 0.0566132 0.0621875 0.0891713 0.0566132 0.0879963 0.0566132 0.0879963 0.0424823 0.0762599 0.0273529 0.0566132 0.0163718 0.0424823 0.276347 0.2856 0.241501 0.252271 0.0111963 0.0329902 0.0107366 0.0352877 0.0107366 0.0352877 0.00914572 0.0334456 0 0.0107366 0 0.00914572 0 0.0111963 0 0.0107366 -0.0717651 -0.0456731 -0.0376483 -0.0209802 -0.102143 -0.0717651 -0.0586916 -0.0376483 -0.142598 -0.10606 -0.102143 -0.0717651 -0.10606 -0.0722769 -0.0717651 -0.0456731 0.286078 0.25782 0.288846 0.257654 0.288846 0.257654 0.2856 0.252271 0 0.00914572 0 0.00656496 0.00914572 0.0334456 0.00656496 0.0273529 0.00656496 0.0273529 0.0027292 0.0163718 0 0.00656496 0 0.0027292 0.206144 0.185812 0.209075 0.190854 0.185812 0.164078 0.190854 0.170749 0.209075 0.190854 0.211532 0.194229 0.190854 0.170749 0.194229 0.176926 0.164078 0.141087 0.170749 0.149771 0.141087 0.117143 0.149771 0.127395 0.170749 0.149771 0.176926 0.15709 0.149771 0.127395 0.15709 0.137253 0.0345074 0.0468661 0.053702 0.0669215 0.0468661 0.062299 0.0669215 0.0829858 0.053702 0.0669215 0.07228 0.0864176 0.0669215 0.0829858 0.0864176 0.10289 0.0144218 0.0239573 0.0314891 0.0421262 0.0239573 0.0345074 0.0421262 0.053702 0.0314891 0.0421262 0.047571 0.0595347 0.0421262 0.053702 0.0595347 0.07228 -0.0239467 -0.017074 -0.00429568 0.00427866 -0.017074 -0.00886928 0.00427866 0.0139555 -0.00429568 0.00427866 0.0144218 0.0239573 0.00427866 0.0139555 0.0239573 0.0345074 -0.00886928 0.00143701 0.0139555 0.0255136 0.00143701 0.0149744 0.0255136 0.0401833 0.0139555 0.0255136 0.0345074 0.0468661 0.0255136 0.0401833 0.0468661 0.062299 0.386673 0.404017 0.627458 0.640759 0.404017 0.419929 0.640759 0.652874 0.627458 0.640759 1 1 0.640759 0.652874 1 1 0.27094 0.282841 0.293267 0.308167 0.282841 0.293132 0.308167 0.321517 0.293267 0.308167 0.386673 0.404017 0.308167 0.321517 0.404017 0.419929 0.293132 0.301738 0.321517 0.333373 0.301738 0.30883 0.333373 0.343759 0.321517 0.333373 0.419929 0.434406 0.333373 0.343759 0.434406 0.447469 0.419929 0.434406 0.652874 0.663807 0.434406 0.447469 0.663807 0.673573 0.652874 0.663807 1 1 0.663807 0.673573 1 1 0.117143 0.0926492 0.127395 0.104674 0.0926492 0.0680491 0.104674 0.0815276 0.127395 0.104674 0.137253 0.115951 0.104674 0.0815276 0.115951 0.09465 0.0680491 0.0440766 0.0815276 0.0588847 0.0440766 0.0214362 0.0588847 0.03747 0.0815276 0.0588847 0.09465 0.0737289 0.0588847 0.03747 0.0737289 0.0528079 -0.0233391 -0.0127212 -0.0327759 -0.0180515 -0.0127212 -0.00580851 -0.0180515 -0.00474543 -0.0327759 -0.0180515 -0.0338051 -0.0168712 -0.0180515 -0.00474543 -0.0168712 -0.00368236 0 0 -0.00861441 -0.00439964 0 0 -0.00439964 -0.00290425 -0.00861441 -0.00439964 -0.0233391 -0.0127212 -0.00439964 -0.00290425 -0.0127212 -0.00580851 0.27094 0.257269 0.266199 0.254659 0.257269 0.241944 0.254659 0.241066 0.266199 0.254659 0.261845 0.250909 0.254659 0.241066 0.250909 0.239973 0.241944 0.224847 0.241066 0.226101 0.224847 0.206144 0.226101 0.209075 0.241066 0.226101 0.239973 0.225753 0.226101 0.209075 0.225753 0.211532 -0.220706 -0.223329 -0.227069 -0.235683 -0.223329 -0.221568 -0.235683 -0.23834 -0.227069 -0.235683 -0.225713 -0.24111 -0.235683 -0.23834 -0.24111 -0.249593 -0.225713 -0.24111 -0.21625 -0.237913 -0.24111 -0.249593 -0.237913 -0.252859 -0.21625 -0.237913 -0.198777 -0.225899 -0.237913 -0.252859 -0.225899 -0.24673 -0.172537 -0.202962 -0.152188 -0.187324 -0.202962 -0.225713 -0.187324 -0.21625 -0.152188 -0.187324 -0.131838 -0.165308 -0.187324 -0.21625 -0.165308 -0.198777 -0.192691 -0.211207 -0.185861 -0.210653 -0.211207 -0.220706 -0.210653 -0.227069 -0.185861 -0.210653 -0.172537 -0.202962 -0.210653 -0.227069 -0.202962 -0.225713 0.047571 0.0595347 0.0629852 0.0763504 0.0595347 0.07228 0.0763504 0.0903568 0.0629852 0.0763504 0.0776475 0.0925058 0.0763504 0.0903568 0.0925058 0.107364 0.07228 0.0864176 0.0903568 0.105315 0.0864176 0.10289 0.105315 0.122162 0.0903568 0.105315 0.107364 0.123954 0.105315 0.122162 0.123954 0.140545 -0.0866678 -0.0744403 -0.0783195 -0.0648506 -0.0744403 -0.0626834 -0.0648506 -0.0524416 -0.0783195 -0.0648506 -0.0695666 -0.056562 -0.0648506 -0.0524416 -0.056562 -0.0435573 -0.11164 -0.0992063 -0.1069 -0.0922682 -0.0992063 -0.0866678 -0.0922682 -0.0783195 -0.1069 -0.0922682 -0.0989168 -0.0842417 -0.0922682 -0.0783195 -0.0842417 -0.0695666 -0.0920211 -0.0880952 -0.108072 -0.0995234 -0.0880952 -0.0830779 -0.0995234 -0.0902255 -0.108072 -0.0995234 -0.11164 -0.0992063 -0.0995234 -0.0902255 -0.0992063 -0.0866678 -0.0830779 -0.077348 -0.0902255 -0.0806062 -0.077348 -0.0712309 -0.0806062 -0.0710062 -0.0902255 -0.0806062 -0.0866678 -0.0744403 -0.0806062 -0.0710062 -0.0744403 -0.0626834 0.0412247 0.110657 0.00598134 0.0578181 0.110657 0.158397 0.0578181 0.0988772 0.00598134 0.0578181 -0.0141075 0.0237001 0.0578181 0.0988772 0.0237001 0.0598664 -0.0141075 0.0237001 -0.025467 0.00128959 0.0237001 0.0598664 0.00128959 0.033496 -0.025467 0.00128959 -0.0314854 -0.0135749 0.00128959 0.033496 -0.0135749 0.0149744 0 -0.018388 0 -0.018846 -0.018388 -0.014