# vtk DataFile Version 3.0
#This file was generated by the deal.II library on 2020/11/19 at 14:52:39
ASCII
DATASET UNSTRUCTURED_GRID

POINTS 9036 double
0.125 0.124999 0
0.125 0.0833324 0
0.166666 0.124998 0
0.166667 0.0833322 0
0.125 0.166665 0
0.125 0.124999 0
0.166666 0.166664 0
0.166666 0.124998 0
0.0833332 0.166666 0
0.0833332 0.124999 0
0.125 0.166665 0
0.125 0.124999 0
0.0833332 0.124999 0
0.0833333 0.0833327 0
0.125 0.124999 0
0.125 0.0833324 0
0.458332 0.541659 0
0.499999 0.541659 0
0.458332 0.583326 0
0.499999 0.583326 0
0.416666 0.541659 0
0.458332 0.541659 0
0.416666 0.583326 0
0.458332 0.583326 0
0.416666 0.499992 0
0.458332 0.499992 0
0.416666 0.541659 0
0.458332 0.541659 0
0.458332 0.499992 0
0.499999 0.499992 0
0.458332 0.541659 0
0.499999 0.541659 0
0.541666 0.624993 0
0.583332 0.624993 0
0.541666 0.66666 0
0.583332 0.66666 0
0.499999 0.624993 0
0.541666 0.624993 0
0.499999 0.66666 0
0.541666 0.66666 0
0.499999 0.583326 0
0.541666 0.583326 0
0.499999 0.624993 0
0.541666 0.624993 0
0.541666 0.583326 0
0.583332 0.583326 0
0.541666 0.624993 0
0.583332 0.624993 0
0.499999 0.541659 0
0.541666 0.541659 0
0.499999 0.583326 0
0.541666 0.583326 0
0.499999 0.499992 0
0.541666 0.499992 0
0.499999 0.541659 0
0.541666 0.541659 0
0.541666 0.499992 0
0.583332 0.499992 0
0.541666 0.541659 0
0.583332 0.541659 0
0.541666 0.541659 0
0.583332 0.541659 0
0.541666 0.583326 0
0.583332 0.583326 0
0.499999 0.458326 0
0.499999 0.416659 0
0.541666 0.458326 0
0.541666 0.416659 0
0.541666 0.458326 0
0.541666 0.416659 0
0.583332 0.458326 0
0.583332 0.416659 0
0.541666 0.499992 0
0.541666 0.458326 0
0.583332 0.499992 0
0.583332 0.458326 0
0.499999 0.499992 0
0.499999 0.458326 0
0.541666 0.499992 0
0.541666 0.458326 0
0.208333 0.20833 0
0.166666 0.208331 0
0.208333 0.166664 0
0.166666 0.166664 0
0.25 0.20833 0
0.208333 0.20833 0
0.25 0.166664 0
0.208333 0.166664 0
0.249999 0.249996 0
0.208333 0.249996 0
0.25 0.20833 0
0.208333 0.20833 0
0.208333 0.249996 0
0.166666 0.249997 0
0.208333 0.20833 0
0.166666 0.208331 0
0.291666 0.874997 0
0.25 0.874998 0
0.291666 0.83333 0
0.25 0.83333 0
0.333333 0.874997 0
0.291666 0.874997 0
0.333333 0.83333 0
0.291666 0.83333 0
0.499999 0.374993 0
0.541666 0.374993 0
0.499999 0.416659 0
0.541666 0.416659 0
0.499999 0.333326 0
0.541666 0.333326 0
0.499999 0.374993 0
0.541666 0.374993 0
0.541666 0.333326 0
0.583332 0.333327 0
0.541666 0.374993 0
0.583332 0.374993 0
0.541666 0.374993 0
0.583332 0.374993 0
0.541666 0.416659 0
0.583332 0.416659 0
0.458332 0.499992 0
0.458332 0.458326 0
0.499999 0.499992 0
0.499999 0.458326 0
0.416666 0.499992 0
0.416666 0.458326 0
0.458332 0.499992 0
0.458332 0.458326 0
0.416666 0.458326 0
0.416666 0.416659 0
0.458332 0.458326 0
0.458332 0.416659 0
0.458332 0.458326 0
0.458332 0.416659 0
0.499999 0.458326 0
0.499999 0.416659 0
0.708333 0.166663 0
0.708333 0.124997 0
0.75 0.166664 0
0.75 0.124998 0
0.666666 0.166663 0
0.666666 0.124997 0
0.708333 0.166663 0
0.708333 0.124997 0
0.666666 0.124997 0
0.666666 0.0833314 0
0.708333 0.124997 0
0.708333 0.0833316 0
0.708333 0.124997 0
0.708333 0.0833316 0
0.75 0.124998 0
0.75 0.0833317 0
0.499999 0.29166 0
0.499999 0.249994 0
0.541666 0.29166 0
0.541666 0.249994 0
0.541666 0.29166 0
0.541666 0.249994 0
0.583333 0.29166 0
0.583333 0.249994 0
0.541666 0.333326 0
0.541666 0.29166 0
0.583332 0.333327 0
0.583333 0.29166 0
0.499999 0.333326 0
0.499999 0.29166 0
0.541666 0.333326 0
0.541666 0.29166 0
0.125 0.208331 0
0.125 0.166665 0
0.166666 0.208331 0
0.166666 0.166664 0
0.125 0.249998 0
0.125 0.208331 0
0.166666 0.249997 0
0.166666 0.208331 0
0.0833331 0.249998 0
0.0833331 0.208332 0
0.125 0.249998 0
0.125 0.208331 0
0.0833331 0.208332 0
0.0833332 0.166666 0
0.125 0.208331 0
0.125 0.166665 0
0.249999 0.458327 0
0.208333 0.458328 0
0.249999 0.416661 0
0.208333 0.416662 0
0.249999 0.499994 0
0.208333 0.499995 0
0.249999 0.458327 0
0.208333 0.458328 0
0.208333 0.499995 0
0.166666 0.499996 0
0.208333 0.458328 0
0.166666 0.458329 0
0.208333 0.458328 0
0.166666 0.458329 0
0.208333 0.416662 0
0.166666 0.416662 0
0.708333 0.458327 0
0.708333 0.41666 0
0.749999 0.458328 0
0.749999 0.416661 0
0.708332 0.499994 0
0.708333 0.458327 0
0.749999 0.499994 0
0.749999 0.458328 0
0.666666 0.499993 0
0.666666 0.458327 0
0.708332 0.499994 0
0.708333 0.458327 0
0.666666 0.458327 0
0.666666 0.41666 0
0.708333 0.458327 0
0.708333 0.41666 0
0.416666 0.583326 0
0.458332 0.583326 0
0.416666 0.624993 0
0.458332 0.624993 0
0.458332 0.583326 0
0.499999 0.583326 0
0.458332 0.624993 0
0.499999 0.624993 0
0.458332 0.624993 0
0.499999 0.624993 0
0.458332 0.66666 0
0.499999 0.66666 0
0.416666 0.624993 0
0.458332 0.624993 0
0.416666 0.66666 0
0.458332 0.66666 0
0.458333 0.708327 0
0.499999 0.708327 0
0.458333 0.749994 0
0.499999 0.749994 0
0.416666 0.708327 0
0.458333 0.708327 0
0.416666 0.749994 0
0.458333 0.749994 0
0.416666 0.66666 0
0.458332 0.66666 0
0.416666 0.708327 0
0.458333 0.708327 0
0.458332 0.66666 0
0.499999 0.66666 0
0.458333 0.708327 0
0.499999 0.708327 0
0.208333 0.874998 0
0.166666 0.874998 0
0.208333 0.833331 0
0.166666 0.833331 0
0.25 0.874998 0
0.208333 0.874998 0
0.25 0.83333 0
0.208333 0.833331 0
0 0.875 0
0 0.833333 0
0.0416666 0.875 0
0.0416666 0.833333 0
0.0416666 0.875 0
0.0416666 0.833333 0
0.0833332 0.874999 0
0.0833332 0.833332 0
0.458332 0.333326 0
0.499999 0.333326 0
0.458332 0.374993 0
0.499999 0.374993 0
0.458332 0.374993 0
0.499999 0.374993 0
0.458332 0.416659 0
0.499999 0.416659 0
0.416666 0.374993 0
0.458332 0.374993 0
0.416666 0.416659 0
0.458332 0.416659 0
0.416666 0.333327 0
0.458332 0.333326 0
0.416666 0.374993 0
0.458332 0.374993 0
0.125 0.45833 0
0.125 0.416663 0
0.166666 0.458329 0
0.166666 0.416662 0
0.125 0.499997 0
0.125 0.45833 0
0.166666 0.499996 0
0.166666 0.458329 0
0.083333 0.499998 0
0.083333 0.458331 0
0.125 0.499997 0
0.125 0.45833 0
0.083333 0.458331 0
0.083333 0.416664 0
0.125 0.45833 0
0.125 0.416663 0
0.375 0.874997 0
0.333333 0.874997 0
0.374999 0.83333 0
0.333333 0.83333 0
0.416666 0.874997 0
0.375 0.874997 0
0.416666 0.833329 0
0.374999 0.83333 0
0.374999 0.374993 0
0.374999 0.416659 0
0.333332 0.374993 0
0.333332 0.41666 0
0.374999 0.333327 0
0.374999 0.374993 0
0.333333 0.333327 0
0.333332 0.374993 0
0.416666 0.333327 0
0.416666 0.374993 0
0.374999 0.333327 0
0.374999 0.374993 0
0.416666 0.374993 0
0.416666 0.416659 0
0.374999 0.374993 0
0.374999 0.416659 0
0.791666 0.749997 0
0.791666 0.791664 0
0.749999 0.749996 0
0.75 0.791663 0
0.291666 0.624994 0
0.291666 0.666661 0
0.249999 0.624995 0
0.249999 0.666662 0
0.291666 0.583327 0
0.291666 0.624994 0
0.249999 0.583328 0
0.249999 0.624995 0
0.333332 0.583326 0
0.333332 0.624994 0
0.291666 0.583327 0
0.291666 0.624994 0
0.333332 0.624994 0
0.333333 0.666661 0
0.291666 0.624994 0
0.291666 0.666661 0
0.416666 0.333327 0
0.374999 0.333327 0
0.416666 0.29166 0
0.374999 0.291661 0
0.374999 0.333327 0
0.333333 0.333327 0
0.374999 0.291661 0
0.333333 0.291661 0
0.374999 0.291661 0
0.333333 0.291661 0
0.374999 0.249995 0
0.333333 0.249995 0
0.416666 0.29166 0
0.374999 0.291661 0
0.416666 0.249994 0
0.374999 0.249995 0
0.624999 0.66666 0
0.624999 0.708328 0
0.583332 0.66666 0
0.583333 0.708327 0
0.666666 0.666661 0
0.666666 0.708328 0
0.624999 0.66666 0
0.624999 0.708328 0
0.666666 0.708328 0
0.666666 0.749995 0
0.624999 0.708328 0
0.624999 0.749995 0
0.624999 0.708328 0
0.624999 0.749995 0
0.583333 0.708327 0
0.583333 0.749995 0
0.0416666 0.125 0
0.0416666 0.083333 0
0.0833332 0.124999 0
0.0833333 0.0833327 0
0.0416666 0.166666 0
0.0416666 0.125 0
0.0833332 0.166666 0
0.0833332 0.124999 0
0 0.166667 0
0 0.125 0
0.0416666 0.166666 0
0.0416666 0.125 0
0 0.125 0
0 0.0833333 0
0.0416666 0.125 0
0.0416666 0.083333 0
0.0833332 0.874999 0
0.0833332 0.833332 0
0.125 0.874999 0
0.125 0.833332 0
0.125 0.874999 0
0.125 0.833332 0
0.166666 0.874998 0
0.166666 0.833331 0
0.541667 0.0416655 0
0.541667 0 0
0.583333 0.0416656 0
0.583333 0 0
0.541666 0.0833311 0
0.541667 0.0416655 0
0.583333 0.0833311 0
0.583333 0.0416656 0
0.5 0.0833311 0
0.5 0.0416655 0
0.541666 0.0833311 0
0.541667 0.0416655 0
0.5 0.0416655 0
0.5 0 0
0.541667 0.0416655 0
0.541667 0 0
0.666666 0.374994 0
0.708333 0.374994 0
0.666666 0.41666 0
0.708333 0.41666 0
0.666666 0.333327 0
0.708333 0.333328 0
0.666666 0.374994 0
0.708333 0.374994 0
0.708333 0.374994 0
0.749999 0.374995 0
0.708333 0.41666 0
0.749999 0.416661 0
0.666666 0.208329 0
0.666666 0.166663 0
0.708333 0.208329 0
0.708333 0.166663 0
0.708333 0.208329 0
0.708333 0.166663 0
0.75 0.20833 0
0.75 0.166664 0
0.333333 0.333327 0
0.333332 0.374993 0
0.291666 0.333328 0
0.291666 0.374994 0
0.333332 0.374993 0
0.333332 0.41666 0
0.291666 0.374994 0
0.291666 0.41666 0
0.291666 0.374994 0
0.291666 0.41666 0
0.249999 0.374994 0
0.249999 0.416661 0
0.291666 0.333328 0
0.291666 0.374994 0
0.249999 0.333328 0
0.249999 0.374994 0
0.666666 0.166663 0
0.624999 0.166663 0
0.666666 0.124997 0
0.625 0.124997 0
0.624999 0.166663 0
0.583333 0.166663 0
0.625 0.124997 0
0.583333 0.124997 0
0.625 0.124997 0
0.583333 0.124997 0
0.625 0.0833312 0
0.583333 0.0833311 0
0.666666 0.124997 0
0.625 0.124997 0
0.666666 0.0833314 0
0.625 0.0833312 0
0 0.0833333 0
0 0.0416667 0
0.0416666 0.083333 0
0.0416666 0.0416665 0
0 0.0416667 0
0 0 0
0.0416666 0.0416665 0
0.0416667 0 0
0.0416666 0.0416665 0
0.0416667 0 0
0.0833333 0.0416664 0
0.0833333 0 0
0.0416666 0.083333 0
0.0416666 0.0416665 0
0.0833333 0.0833327 0
0.0833333 0.0416664 0
0.791666 0.124998 0
0.75 0.124998 0
0.791666 0.083332 0
0.75 0.0833317 0
0.833333 0.124998 0
0.791666 0.124998 0
0.833333 0.0833322 0
0.791666 0.083332 0
0.833333 0.166665 0
0.791666 0.166664 0
0.833333 0.124998 0
0.791666 0.124998 0
0.791666 0.166664 0
0.75 0.166664 0
0.791666 0.124998 0
0.75 0.124998 0
0.249999 0.291662 0
0.208333 0.291663 0
0.249999 0.249996 0
0.208333 0.249996 0
0.249999 0.333328 0
0.208333 0.333329 0
0.249999 0.291662 0
0.208333 0.291663 0
0.208333 0.333329 0
0.166666 0.33333 0
0.208333 0.291663 0
0.166666 0.291663 0
[...]
POINT_DATA 9036
SCALARS solution_0 double 1
LOOKUP_TABLE default
-0.0277871 -0.0122584 -0.0481733 -0.024148 -0.0452609 -0.0277871 -0.0737176 -0.0481733 -0.0224859 -0.0127113 -0.0452609 -0.0277871 -0.0127113 -0.00487836 -0.0277871 -0.0122584 -0.029409 -0.0334111 0.0109131 0.00700962 -0.0260106 -0.029409 0.0140857 0.0109131 -0.0656701 -0.0689264 -0.0260106 -0.029409 -0.0689264 -0.0727526 -0.029409 -0.0334111 0.0441228 0.037833 0.0880874 0.0814097 0.0489355 0.0441228 0.0927793 0.0880874 0.00700962 0.00220922 0.0489355 0.0441228 0.00220922 -0.00364234 0.0441228 0.037833 -0.0334111 -0.0380672 0.00700962 0.00220922 -0.0727526 -0.0770693 -0.0334111 -0.0380672 -0.0770693 -0.0817571 -0.0380672 -0.0433962 -0.0380672 -0.0433962 0.00220922 -0.00364234 -0.111637 -0.15136 -0.115358 -0.154336 -0.115358 -0.154336 -0.119338 -0.157796 -0.0770693 -0.115358 -0.0817571 -0.119338 -0.0727526 -0.111637 -0.0770693 -0.115358 -0.134852 -0.0963602 -0.106944 -0.0737176 -0.174669 -0.134852 -0.143061 -0.106944 -0.192856 -0.15291 -0.174669 -0.134852 -0.15291 -0.112374 -0.134852 -0.0963602 0.185772 0.141712 0.18436 0.149225 0.224605 0.185772 0.214759 0.18436 -0.193951 -0.196457 -0.15136 -0.154336 -0.240404 -0.24323 -0.193951 -0.196457 -0.24323 -0.247356 -0.196457 -0.19999 -0.196457 -0.19999 -0.154336 -0.157796 -0.0689264 -0.108361 -0.0727526 -0.111637 -0.0656701 -0.105667 -0.0689264 -0.108361 -0.105667 -0.147057 -0.108361 -0.148941 -0.108361 -0.148941 -0.111637 -0.15136 -0.186647 -0.119477 -0.137838 -0.0812917 -0.229207 -0.156545 -0.186647 -0.119477 -0.156545 -0.0910797 -0.119477 -0.0636173 -0.119477 -0.0636173 -0.0812917 -0.037928 -0.286629 -0.320426 -0.290585 -0.325326 -0.290585 -0.325326 -0.294871 -0.328178 -0.24323 -0.290585 -0.247356 -0.294871 -0.240404 -0.286629 -0.24323 -0.290585 -0.0616164 -0.0452609 -0.0963602 -0.0737176 -0.0740049 -0.0616164 -0.112374 -0.0963602 -0.0398445 -0.0321442 -0.0740049 -0.0616164 -0.0321442 -0.0224859 -0.0616164 -0.0452609 -0.0896889 -0.0781513 -0.125182 -0.108187 -0.0530434 -0.046042 -0.0896889 -0.0781513 -0.046042 -0.0360676 -0.0781513 -0.062174 -0.0781513 -0.062174 -0.108187 -0.0857479 -0.134357 -0.175703 -0.144339 -0.187555 -0.0975448 -0.134357 -0.105713 -0.144339 -0.0917806 -0.128127 -0.0975448 -0.134357 -0.128127 -0.167443 -0.134357 -0.175703 0.0140857 0.0109131 0.0551324 0.0525307 0.0109131 0.00700962 0.0525307 0.0489355 0.0525307 0.0489355 0.0958053 0.0927793 0.0551324 0.0525307 0.0973692 0.0958053 0.14072 0.13871 0.186382 0.186098 0.140514 0.14072 0.183348 0.186382 0.0973692 0.0958053 0.140514 0.14072 0.0958053 0.0927793 0.14072 0.13871 0.0948635 0.0492805 0.111243 0.0731343 0.141712 0.0948635 0.149225 0.111243 0 0 -0.00891551 0.00175924 -0.00891551 0.00175924 -0.0100682 0.0136054 -0.238141 -0.240404 -0.192181 -0.193951 -0.192181 -0.193951 -0.148941 -0.15136 -0.190653 -0.192181 -0.147057 -0.148941 -0.235335 -0.238141 -0.190653 -0.192181 -0.04283 -0.059746 -0.062174 -0.0857479 -0.0235377 -0.04283 -0.0360676 -0.062174 -0.0103118 -0.0224575 -0.0235377 -0.04283 -0.0224575 -0.0330222 -0.04283 -0.059746 0.25685 0.224605 0.239314 0.214759 0.281871 0.25685 0.257639 0.239314 -0.188288 -0.14522 -0.183325 -0.142213 -0.230346 -0.188288 -0.221096 -0.183325 -0.235335 -0.190653 -0.230346 -0.188288 -0.190653 -0.147057 -0.188288 -0.14522 0.0734368 0.108869 0.103166 0.142794 0.0558847 0.0910171 0.0525017 0.0835386 0.0190788 0.0558847 0.0188096 0.0525017 0.0183205 0.0571874 0.0190788 0.0558847 0.0571874 0.0955012 0.0558847 0.0910171 -0.235335 -0.230346 -0.275681 -0.265524 -0.230346 -0.221096 -0.265524 -0.249682 -0.265524 -0.249682 -0.285289 -0.260569 -0.275681 -0.265524 -0.301438 -0.285289 0.0724329 0.11732 0.0814097 0.127366 0.0609169 0.103834 0.0724329 0.11732 0.103834 0.148745 0.11732 0.164299 0.11732 0.164299 0.127366 0.175396 -0.00314724 -0.000840455 -0.0127113 -0.00487836 -0.00620496 -0.00314724 -0.0224859 -0.0127113 0 0 -0.00620496 -0.00314724 0 0 -0.00314724 -0.000840455 -0.0100682 0.0136054 0.0114212 0.0388013 0.0114212 0.0388013 0.0492805 0.0731343 -0.0798292 0 -0.070614 0 -0.151087 -0.0798292 -0.137381 -0.070614 -0.156755 -0.0832167 -0.151087 -0.0798292 -0.0832167 0 -0.0798292 0 -0.212196 -0.221912 -0.167443 -0.175703 -0.260429 -0.267434 -0.212196 -0.221912 -0.221912 -0.232099 -0.175703 -0.187555 -0.290826 -0.229207 -0.252199 -0.186647 -0.252199 -0.186647 -0.199857 -0.137838 -0.221096 -0.183325 -0.205374 -0.173563 -0.183325 -0.142213 -0.173563 -0.136178 -0.173563 -0.136178 -0.15714 -0.125182 -0.205374 -0.173563 -0.181896 -0.15714 -0.229207 -0.261212 -0.156545 -0.188118 -0.261212 -0.281554 -0.188118 -0.211226 -0.188118 -0.211226 -0.116681 -0.137381 -0.156545 -0.188118 -0.0910797 -0.116681 0 0 -0.000840455 -0.00138251 0 0 -0.00138251 0 -0.00138251 0 -0.000259559 0 -0.000840455 -0.00138251 -0.00487836 -0.000259559 -0.0472022 -0.0812917 -0.0173789 -0.037928 -0.0217084 -0.0472022 -0.00405991 -0.0173789 -0.0475798 -0.0888901 -0.0217084 -0.0472022 -0.0888901 -0.137838 -0.0472022 -0.0812917 -0.195004 -0.15853 -0.192856 -0.15291 -0.181896 -0.151471 -0.195004 -0.15853 -0.151471 -0.11644 -0.15853 -0.119314 -0.15853 -0.119314 -0.15291 -0.112374 0.0411833 0.0734368 0.0656979 0.103166 0.010419 0.0411833 0.0299906 0.0656979 -0.00107953 0.00223626 0 0 0 -0.00107953 0 0 0 0.00100289 0 -0.00107953 0.00100289 0.00241059 -0.00107953 0.00223626 -0.194166 -0.255299 -0.140448 -0.199857 -0.140448 -0.199857 -0.0888901 -0.137838 -0.0827293 -0.140448 -0.0475798 -0.0888901 -0.125052 -0.194166 -0.0827293 -0.140448 -0.0442428 -0.0398445 -0.0803885 -0.0740049 -0.0803885 -0.0740049 -0.119314 -0.112374 -0.0797742 -0.0803885 -0.11644 -0.119314 -0.0444444 -0.0442428 -0.0797742 -0.0803885 -0.133662 -0.108187 -0.104611 -0.0857479 -0.151471 -0.133662 -0.11644 -0.104611 -0.181896 -0.15714 -0.151471 -0.133662 -0.15714 -0.125182 -0.133662 -0.108187 0.194464 0.214759 0.172216 0.18436 0.172216 0.18436 0.145531 0.149225 0.151107 0.172216 0.131954 0.145531 0.166111 0.194464 0.151107 0.172216 -0.0407485 -0.0725551 -0.0330222 -0.059746 -0.0444444 -0.0797742 -0.0407485 -0.0725551 -0.0797742 -0.11644 -0.0725551 -0.104611 -0.0725551 -0.104611 -0.059746 -0.0857479 0.0835386 0.110605 0.0733345 0.0947163 0.110605 0.131954 0.0947163 0.109571 0.0947163 0.109571 0.0764869 0.0851277 0.0733345 0.0947163 0.0610541 0.0764869 -0.128127 -0.123494 -0.167443 -0.161922 -0.0917806 -0.0866759 -0.128127 -0.123494 -0.0866759 -0.0817571 -0.123494 -0.119338 -0.123494 -0.119338 -0.161922 -0.157796 -0.0135604 -0.0120841 -0.0442428 -0.0398445 -0.0128039 -0.0135604 -0.0444444 -0.0442428 0 0 -0.0128039 -0.0135604 0 0 -0.0135604 -0.0120841 0.115789 0.111243 0.0845709 0.0731343 0.109571 0.115789 0.0851277 0.0845709 0.131954 0.145531 0.109571 0.115789 0.145531 0.149225 0.115789 0.111243 -0.0575243 -0.0530434 -0.0968789 -0.0896889 -0.0968789 -0.0896889 -0.136178 -0.125182 -0.100919 -0.0968789 -0.142213 -0.136178 -0.0604777 -0.0575243 -0.100919 -0.0968789 -0.0120841 -0.00941764 -0.0398445 -0.0321442 0 0 -0.0120841 -0.00941764 0 0 -0.00941764 -0.00620496 -0.00941764 -0.00620496 -0.0321442 -0.0224859 -0.205374 -0.181896 -0.225991 -0.195004 -0.225991 -0.195004 -0.229455 -0.192856 -0.249682 -0.225991 -0.260569 -0.229455 -0.221096 -0.205374 -0.249682 -0.225991 -0.314724 -0.327775 -0.261212 -0.281554 -0.290826 -0.314724 -0.229207 -0.261212 0.0467575 0.0299906 0.086635 0.0656979 0.086635 0.0656979 0.128388 0.103166 0.103834 0.086635 0.148745 0.128388 0.0609169 0.0467575 0.103834 0.086635 0.0157046 0.0168189 0.0332742 0.0407117 0.0332742 0.0407117 0.0474927 0.0610541 0.223563 0.257639 0.211588 0.239314 0.211588 0.239314 0.194464 0.214759 0.176757 0.211588 0.166111 0.194464 0.183348 0.223563 0.176757 0.211588 -0.118697 -0.105713 -0.158582 -0.144339 -0.158582 -0.144339 -0.200043 -0.187555 -0.0828669 -0.0504278 -0.070868 -0.0375843 -0.118697 -0.0828669 -0.105713 -0.070868 -0.0910797 -0.040229 -0.0636173 -0.0237689 -0.040229 0 -0.0237689 0 -0.0237689 0 -0.00986349 0 -0.0636173 -0.0237689 -0.037928 -0.00986349 -0.00405991 -0.0173789 0.00441318 -0.000276903 -0.0173789 -0.037928 -0.000276903 -0.00986349 -0.000276903 -0.00986349 0 0 0.00441318 -0.000276903 0 0 -0.143937 -0.127356 -0.0731232 -0.0619923 -0.127356 -0.106353 -0.0619923 -0.0490549 -0.0619923 -0.0490549 0 0 -0.0731232 -0.0619923 0 0 0.183348 0.186382 0.223563 0.230528 0.186382 0.186098 0.230528 0.232949 0.230528 0.232949 0.270018 0.275873 0.223563 0.230528 0.257639 0.270018 0.020177 0.00879354 0.0609169 0.0467575 -0.0185937 -0.0274982 0.020177 0.00879354 -0.0274982 -0.0375843 0.00879354 -0.00426911 0.00879354 -0.00426911 0.0467575 0.0299906 -0.213085 -0.174669 -0.17945 -0.143061 -0.247571 -0.213085 -0.213449 -0.17945 -0.260569 -0.229455 -0.247571 -0.213085 -0.229455 -0.192856 -0.213085 -0.174669 -0.0197832 0.010419 -0.00426911 0.0299906 -0.0504278 -0.0197832 -0.0375843 -0.00426911 -0.040229 -0.0567193 0 0 -0.0910797 -0.116681 -0.040229 -0.0567193 -0.116681 -0.137381 -0.0567193 -0.070614 -0.0567193 -0.070614 0 0 -0.0629545 -0.0604777 -0.103414 -0.100919 -0.103414 -0.100919 -0.14522 -0.142213 -0.105667 -0.103414 -0.147057 -0.14522 -0.0656701 -0.0629545 -0.105667 -0.103414 -0.04933 -0.0106012 -0.0433962 -0.00364234 -0.0866759 -0.04933 -0.0817571 -0.0433962 -0.0917806 -0.0557267 -0.0866759 -0.04933 -0.0557267 -0.0185937 -0.04933 -0.0106012 0.00479204 0.00441318 0 0 0.00223626 0.00479204 0 0 0.00241059 0.00192023 0.00223626 0.00479204 0.00192023 -0.00405991 0.00479204 0.00441318 -0.228597 -0.156755 -0.224713 -0.151087 -0.224713 -0.151087 -0.211226 -0.137381 -0.290868 -0.224713 -0.281554 -0.211226 -0.291036 -0.228597 -0.290868 -0.224713 -0.299436 -0.266433 -0.316212 -0.283262 -0.253177 -0.204982 -0.247356 -0.19999 -0.260429 -0.212196 -0.253177 -0.204982 -0.212196 -0.167443 -0.204982 -0.161922 -0.204982 -0.161922 -0.19999 -0.157796 -0.0656701 -0.0260106 -0.0629545 -0.0231762 -0.0260106 0.0140857 -0.0231762 0.0165907 -0.0231762 0.0165907 -0.0208424 0.0183205 -0.0629545 -0.0231762 -0.0604777 -0.0208424 -0.0116246 -0.0376567 -0.00498786 -0.0196319 -0.0635513 -0.125052 -0.0376567 -0.0827293 -0.0376567 -0.0827293 -0.0196319 -0.0475798 -0.260429 -0.253177 -0.30219 -0.298685 -0.253177 -0.247356 -0.298685 -0.294871 0.0551324 0.0973692 0.0567741 0.0974086 0.0567741 0.0974086 0.0571874 0.0955012 0.0165907 0.0567741 0.0183205 0.0571874 0.0140857 0.0551324 0.0165907 0.0567741 -0.0557267 -0.0626056 -0.0185937 -0.0274982 -0.0917806 -0.0975448 -0.0557267 -0.0626056 -0.0975448 -0.105713 -0.0626056 -0.070868 -0.0626056 -0.070868 -0.0274982 -0.0375843 -0.238141 -0.282087 -0.240404 -0.286629 -0.235335 -0.275681 -0.238141 -0.282087 -0.275681 -0.301438 -0.282087 -0.312846 -0.282087 -0.312846 -0.286629 -0.320426 0.0525017 0.0835386 0.0471976 0.0733345 0.0471976 0.0733345 0.0407117 0.0610541 0.0178105 0.0471976 0.0168189 0.0407117 0.0188096 0.0525017 0.0178105 0.0471976 0.140514 0.183348 0.137893 0.176757 0.137893 0.176757 0.132361 0.166111 0.0974086 0.137893 0.0955012 0.132361 0.0973692 0.140514 0.0974086 0.137893 -0.0185937 0.020177 -0.0106012 0.029875 0.020177 0.0609169 0.029875 0.0724329 0.029875 0.0724329 0.037833 0.0814097 -0.0106012 0.029875 -0.00364234 0.037833 0.000667823 -0.000158865 0.00100289 0.00241059 0 0.000667823 0 0.00100289 0 -0.000351636 0 0.000667823 -0.000351636 -0.00498786 0.000667823 -0.000158865 0.0927793 0.0880874 0.13871 0.134363 0.0880874 0.0814097 0.134363 0.127366 0.134363 0.127366 0.182521 0.175396 0.13871 0.134363 0.186098 0.182521 0.132361 0.166111 0.123329 0.151107 0.123329 0.151107 0.110605 0.131954 0.0910171 0.123329 0.0835386 0.110605 0.0955012 0.132361 0.0910171 0.123329 0.281871 0.257639 0.299485 0.270018 -0.01362 0.0178105 -0.00926671 0.0168189 -0.046042 -0.01362 -0.0360676 -0.00926671 -0.0530434 -0.0166101 -0.046042 -0.01362 -0.0166101 0.0188096 -0.01362 0.0178105 -0.0604777 -0.0208424 -0.0575243 -0.0188023 -0.0208424 0.0183205 -0.0188023 0.0190788 -0.0188023 0.0190788 -0.0166101 0.0188096 -0.0575243 -0.0188023 -0.0530434 -0.0166101 -0.00653112 -0.0217084 0.00192023 -0.00405991 -0.000158865 -0.00653112 0.00241059 0.00192023 -0.00498786 -0.0196319 -0.000158865 -0.00653112 -0.0196319 -0.0475798 -0.00653112 -0.0217084 -0.285289 -0.260569 -0.276958 -0.247571 -0.276958 -0.247571 -0.242906 -0.213449 -0.299436 -0.276958 -0.266433 -0.242906 -0.143937 -0.0731232 -0.154199 -0.0806923 -0.0731232 0 -0.0806923 0 -0.0806923 0 -0.0832167 0 -0.154199 -0.0806923 -0.156755 -0.0832167 0.230822 0.223985 0.275889 0.270167 0.232949 0.230822 0.275873 0.275889 0.186098 0.182521 0.232949 0.230822 0.182521 0.175396 0.230822 0.223985 -0.0405284 -0.024148 -0.0137468 -0.006139 -0.0137468 -0.006139 0 0 -0.023872 -0.0137468 0 0 -0.0607066 -0.0405284 -0.023872 -0.0137468 -0.106353 -0.0833212 -0.0490549 -0.0359271 -0.0833212 -0.0607066 -0.0359271 -0.023872 -0.0359271 -0.023872 0 0 -0.0490549 -0.0359271 0 0 0.212101 0.25849 0.223985 0.270167 0.164299 0.212101 0.175396 0.223985 0.148745 0.194767 0.164299 0.212101 0.194767 0.240678 0.212101 0.25849 -0.213449 -0.17945 -0.163581 -0.133739 -0.17945 -0.143061 -0.133739 -0.102848 -0.133739 -0.102848 -0.0833212 -0.0607066 -0.163581 -0.133739 -0.106353 -0.0833212 -0.242906 -0.213449 -0.189805 -0.163581 -0.189805 -0.163581 -0.127356 -0.106353 -0.210246 -0.189805 -0.143937 -0.127356 -0.266433 -0.242906 -0.210246 -0.189805 0.00197483 -0.0034726 0.0140247 0.0157046 -0.0103118 -0.0235377 0.00197483 -0.0034726 -0.0235377 -0.0360676 -0.0034726 -0.00926671 -0.0034726 -0.00926671 0.0157046 0.0168189 -0.283262 -0.223381 -0.291036 -0.228597 -0.266433 -0.210246 -0.283262 -0.223381 -0.210246 -0.143937 -0.223381 -0.154199 -0.223381 -0.154199 -0.228597 -0.156755 -0.00487836 -0.000259559 -0.0122584 -0.00155431 -0.000259559 0 -0.00155431 0 -0.00155431 0 -0.006139 0 -0.0122584 -0.00155431 -0.024148 -0.006139 -0.00135993 -0.0116246 -0.000351636 -0.00498786 0 -0.00135993 0 -0.000351636 0.0324802 0.0567231 0.0316678 0.058789 0.0474927 0.0610541 0.0567231 0.0764869 0.0567231 0.0764869 0.058789 0.0851277 0.171616 0.142794 0.216651 0.186339 0.194767 0.171616 0.240678 0.216651 0.148745 0.128388 0.194767 0.171616 0.128388 0.103166 0.171616 0.142794 0.0316678 0.058789 0.0257318 0.0535489 0.058789 0.0851277 0.0535489 0.0845709 0.0535489 0.0845709 0.0388013 0.0731343 0.0257318 0.0535489 0.0136054 0.0388013 0.0100978 0.030238 0.0103054 0.0324802 0.0103054 0.0324802 0.0088126 0.0316678 0 0.0103054 0 0.0088126 0 0.0100978 0 0.0103054 -0.0736019 -0.0481733 -0.0405284 -0.024148 -0.102848 -0.0736019 -0.0607066 -0.0405284 -0.143061 -0.106944 -0.102848 -0.0736019 -0.106944 -0.0737176 -0.0736019 -0.0481733 0 0.0088126 0 0.0062289 0.0088126 0.0316678 0.0062289 0.0257318 0.0062289 0.0257318 0.00175924 0.0136054 0 0.0062289 0 0.00175924 0.228912 0.205796 0.225199 0.204683 0.205796 0.181169 0.204683 0.182204 0.225199 0.204683 0.224605 0.205189 0.204683 0.182204 0.205189 0.185772 0.181169 0.155157 0.182204 0.158747 0.155157 0.128075 0.158747 0.133871 0.182204 0.158747 0.185772 0.163742 0.158747 0.133871 0.163742 0.141712 0.0290877 0.0454618 0.0506949 0.0681971 0.0454618 0.0655195 0.0681971 0.0894353 0.0506949 0.0681971 0.0711097 0.0893957 0.0681971 0.0894353 0.0893957 0.111247 0.00242491 0.0149585 0.0223508 0.0357867 0.0149585 0.0290877 0.0357867 0.0506949 0.0223508 0.0357867 0.0404818 0.0551236 0.0357867 0.0506949 0.0551236 0.0711097 -0.0394785 -0.0308072 -0.0190024 -0.00783603 -0.0308072 -0.0208256 -0.00783603 0.00488503 -0.0190024 -0.00783603 0.00242491 0.0149585 -0.00783603 0.00488503 0.0149585 0.0290877 0.128075 0.100302 0.133871 0.10857 0.100302 0.0722958 0.10857 0.0828641 0.133871 0.10857 0.141712 0.118288 0.10857 0.0828641 0.118288 0.0948635 0.0722958 0.044793 0.0828641 0.0576558 0.044793 0.0185359 0.0576558 0.0337772 0.0828641 0.0576558 0.0948635 0.072072 0.0576558 0.0337772 0.072072 0.0492805 -0.0329971 -0.0182413 -0.0456976 -0.0262653 -0.0182413 -0.00891551 -0.0262653 -0.00949183 -0.0456976 -0.0262653 -0.047631 -0.0262094 -0.0262653 -0.00949183 -0.0262094 -0.0100682 0 0 -0.0119832 -0.00621591 0 0 -0.00621591 -0.00445775 -0.0119832 -0.00621591 -0.0329971 -0.0182413 -0.00621591 -0.00445775 -0.0182413 -0.00891551 0.303632 0.287651 0.290268 0.276961 0.287651 0.269916 0.276961 0.261424 0.290268 0.276961 0.281871 0.26936 0.276961 0.261424 0.26936 0.25685 0.269916 0.250269 0.261424 0.244412 0.250269 0.228912 0.244412 0.225199 0.261424 0.244412 0.25685 0.240727 0.244412 0.225199 0.240727 0.224605 -0.250956 -0.263262 -0.247577 -0.2666 -0.263262 -0.268796 -0.2666 -0.278422 -0.247577 -0.2666 -0.236376 -0.261351 -0.2666 -0.278422 -0.261351 -0.279616 -0.236376 -0.261351 -0.217946 -0.247851 -0.261351 -0.279616 -0.247851 -0.271635 -0.217946 -0.247851 -0.194166 -0.224732 -0.247851 -0.271635 -0.224732 -0.255299 -0.201588 -0.230471 -0.18748 -0.220934 -0.230471 -0.250956 -0.220934 -0.247577 -0.18748 -0.220934 -0.168925 -0.204945 -0.220934 -0.247577 -0.204945 -0.236376 0.0404818 0.0551236 0.0574592 0.0734153 0.0551236 0.0711097 0.0734153 0.0904395 0.0574592 0.0734153 0.0734368 0.0911527 0.0734153 0.0904395 0.0911527 0.108869 0.0711097 0.0893957 0.0904395 0.109493 0.0893957 0.111247 0.109493 0.131749 0.0904395 0.109493 0.108869 0.128715 0.109493 0.131749 0.128715 0.15116 0.108869 0.128715 0.125832 0.147158 0.128715 0.15116 0.147158 0.169344 0.125832 0.147158 0.142794 0.164567 0.147158 0.169344 0.164567 0.186339 -0.117404 -0.104501 -0.111515 -0.0960603 -0.104501 -0.0915421 -0.0960603 -0.0811049 -0.111515 -0.0960603 -0.101616 -0.0851221 -0.0960603 -0.0811049 -0.0851221 -0.0693913 -0.141563 -0.12974 -0.142778 -0.127068 -0.12974 -0.117404 -0.127068 -0.111515 -0.142778 -0.127068 -0.136541 -0.118865 -0.127068 -0.111515 -0.118865 -0.101616 -0.0254003 -0.00597217 -0.00526658 0.0118997 -0.00597217 0.0114212 0.0118997 0.0303509 -0.00526658 0.0118997 0.0185359 0.0337772 0.0118997 0.0303509 0.0337772 0.0492805 -0.047631 -0.0262094 -0.0401131 -0.0196695 -0.0262094 -0.0100682 -0.0196695 0.000676539 -0.0401131 -0.0196695 -0.0254003 -0.00597217 -0.0196695 0.000676539 -0.00597217 0.0114212 -0.0133965 -0.0261257 -0.0119282 -0.0236828 -0.0261257 -0.0407485 -0.0236828 -0.0368853 -0.0119282 -0.0236828 -0.0101368 -0.0207153 -0.0236828 -0.0368853 -0.0207153 -0.0330222 0 -0.00388158 0 -0.00325296 -0.00388158 -0.0133965 -0.00325296 -0.0119282 0 -0.00325296 0 -0.00265463 -0.00325296 -0.0119282 -0.00265463 -0.0101368 -0.267434 -0.269572 -0.244673 -0.24944 -0.269572 -0.268796 -0.24944 -0.252595 -0.244673 -0.24944 -0.221912 -0.227006 -0.24944 -0.252595 -0.227006 -0.232099 -0.0663975 -0.0544234 -0.0530389 -0.0399002 -0.0544234 -0.0428402 -0.0399002 -0.027243 -0.0530389 -0.0399002 -0.040161 -0.0264168 -0.0399002 -0.027243 -0.0264168 -0.0130227 -0.0915421 -0.0787903 -0.0811049 -0.0667514 -0.0787903 -0.0663975 -0.0667514 -0.0530389 -0.0811049 -0.0667514 -0.0693913 -0.0544602 -0.0667514 -0.0530389 -0.0544602 -0.040161 -0.126443 -0.165827 -0.110745 -0.149592 -0.165827 -0.201588 -0.149592 -0.18748 -0.110745 -0.149592 -0.0943461 -0.130978 -0.149592 -0.18748 -0.130978 -0.168925 -0.0540375 -0.0877732 -0.0448711 -0.0747769 -0.0877732 -0.126443 -0.0747769 -0.110745 -0.0448711 -0.0747769 -0.0363789 -0.062137 -0.0747769 -0.110745 -0.062137 -0.0943461 0.211921 0.228121 0.177904 0.195515 0.228121 0.242955 0.195515 0.21189 0.177904 0.195515 0.15116 0.169344 0.195515 0.21189 0.169344 0.186339 0.174642 0.194197 0.138666 0.158992 0.194197 0.211921 0.158992 0.177904 0.138666 0.158992 0.111247 0.131749 0.158992 0.177904 0.131749 0.15116 -0.0130227 0.000154441 -0.000656998 0.0135967 0.000154441 0.0133302 0.0135967 0.0277733 -0.000656998 0.0135967 0.010419 0.0258012 0.0135967 0.0277733 0.0258012 0.0411833 0.0133302 0.0266825 0.0277733 0.042434 0.0266825 0.0404818 0.042434 0.0574592 0.0277733 0.042434 0.0411833 0.0573101 0.042434 0.0574592 0.0573101 0.0734368 -0.0204339 -0.00932493 -0.00270426 0.0096757 -0.00932493 0.00242491 0.0096757 0.0223508 -0.00270426 0.0096757 0.0133302 0.0266825 0.0096757 0.0223508 0.0266825 0.0404818 -0.0428402 -0.0315615 -0.027243 -0.0149053 -0.0315615 -0.0204339 -0.0149053 -0.00270426 -0.027243 -0.01490