# vtk DataFile Version 3.0
#This file was generated by the deal.II library on 2020/11/19 at 14:53:18
ASCII
DATASET UNSTRUCTURED_GRID

POINTS 18612 double
0.125 0.124999 0
0.125 0.0833324 0
0.166666 0.124998 0
0.166667 0.0833322 0
0.125 0.166665 0
0.125 0.124999 0
0.166666 0.166664 0
0.166666 0.124998 0
0.0833332 0.166666 0
0.0833332 0.124999 0
0.125 0.166665 0
0.125 0.124999 0
0.0833332 0.124999 0
0.0833333 0.0833327 0
0.125 0.124999 0
0.125 0.0833324 0
0.458332 0.541659 0
0.499999 0.541659 0
0.458332 0.583326 0
0.499999 0.583326 0
0.416666 0.541659 0
0.458332 0.541659 0
0.416666 0.583326 0
0.458332 0.583326 0
0.416666 0.499992 0
0.458332 0.499992 0
0.416666 0.541659 0
0.458332 0.541659 0
0.458332 0.499992 0
0.499999 0.499992 0
0.458332 0.541659 0
0.499999 0.541659 0
0.541666 0.624993 0
0.583332 0.624993 0
0.541666 0.66666 0
0.583332 0.66666 0
0.499999 0.624993 0
0.541666 0.624993 0
0.499999 0.66666 0
0.541666 0.66666 0
0.499999 0.583326 0
0.541666 0.583326 0
0.499999 0.624993 0
0.541666 0.624993 0
0.541666 0.583326 0
0.583332 0.583326 0
0.541666 0.624993 0
0.583332 0.624993 0
0.499999 0.541659 0
0.541666 0.541659 0
0.499999 0.583326 0
0.541666 0.583326 0
0.499999 0.499992 0
0.541666 0.499992 0
0.499999 0.541659 0
0.541666 0.541659 0
0.541666 0.499992 0
0.583332 0.499992 0
0.541666 0.541659 0
0.583332 0.541659 0
0.541666 0.541659 0
0.583332 0.541659 0
0.541666 0.583326 0
0.583332 0.583326 0
0.499999 0.458326 0
0.499999 0.416659 0
0.541666 0.458326 0
0.541666 0.416659 0
0.541666 0.458326 0
0.541666 0.416659 0
0.583332 0.458326 0
0.583332 0.416659 0
0.541666 0.499992 0
0.541666 0.458326 0
0.583332 0.499992 0
0.583332 0.458326 0
0.499999 0.499992 0
0.499999 0.458326 0
0.541666 0.499992 0
0.541666 0.458326 0
0.208333 0.20833 0
0.166666 0.208331 0
0.208333 0.166664 0
0.166666 0.166664 0
0.25 0.20833 0
0.208333 0.20833 0
0.25 0.166664 0
0.208333 0.166664 0
0.249999 0.249996 0
0.208333 0.249996 0
0.25 0.20833 0
0.208333 0.20833 0
0.208333 0.249996 0
0.166666 0.249997 0
0.208333 0.20833 0
0.166666 0.208331 0
0.291666 0.874997 0
0.25 0.874998 0
0.291666 0.83333 0
0.25 0.83333 0
0.333333 0.874997 0
0.291666 0.874997 0
0.333333 0.83333 0
0.291666 0.83333 0
0.499999 0.374993 0
0.541666 0.374993 0
0.499999 0.416659 0
0.541666 0.416659 0
0.499999 0.333326 0
0.541666 0.333326 0
0.499999 0.374993 0
0.541666 0.374993 0
0.541666 0.333326 0
0.583332 0.333327 0
0.541666 0.374993 0
0.583332 0.374993 0
0.541666 0.374993 0
0.583332 0.374993 0
0.541666 0.416659 0
0.583332 0.416659 0
0.458332 0.499992 0
0.458332 0.458326 0
0.499999 0.499992 0
0.499999 0.458326 0
0.416666 0.499992 0
0.416666 0.458326 0
0.458332 0.499992 0
0.458332 0.458326 0
0.416666 0.458326 0
0.416666 0.416659 0
0.458332 0.458326 0
0.458332 0.416659 0
0.458332 0.458326 0
0.458332 0.416659 0
0.499999 0.458326 0
0.499999 0.416659 0
0.666666 0.166663 0
0.666666 0.124997 0
0.708333 0.166663 0
0.708333 0.124997 0
0.666666 0.124997 0
0.666666 0.0833314 0
0.708333 0.124997 0
0.708333 0.0833316 0
0.499999 0.29166 0
0.499999 0.249994 0
0.541666 0.29166 0
0.541666 0.249994 0
0.541666 0.333326 0
0.541666 0.29166 0
0.583332 0.333327 0
0.583333 0.29166 0
0.499999 0.333326 0
0.499999 0.29166 0
0.541666 0.333326 0
0.541666 0.29166 0
0.125 0.208331 0
0.125 0.166665 0
0.166666 0.208331 0
0.166666 0.166664 0
0.125 0.249998 0
0.125 0.208331 0
0.166666 0.249997 0
0.166666 0.208331 0
0.0833331 0.249998 0
0.0833331 0.208332 0
0.125 0.249998 0
0.125 0.208331 0
0.0833331 0.208332 0
0.0833332 0.166666 0
0.125 0.208331 0
0.125 0.166665 0
0.708333 0.458327 0
0.708333 0.41666 0
0.749999 0.458328 0
0.749999 0.416661 0
0.708332 0.499994 0
0.708333 0.458327 0
0.749999 0.499994 0
0.749999 0.458328 0
0.666666 0.499993 0
0.666666 0.458327 0
0.708332 0.499994 0
0.708333 0.458327 0
0.666666 0.458327 0
0.666666 0.41666 0
0.708333 0.458327 0
0.708333 0.41666 0
0.416666 0.583326 0
0.458332 0.583326 0
0.416666 0.624993 0
0.458332 0.624993 0
0.458332 0.583326 0
0.499999 0.583326 0
0.458332 0.624993 0
0.499999 0.624993 0
0.458332 0.624993 0
0.499999 0.624993 0
0.458332 0.66666 0
0.499999 0.66666 0
0.416666 0.624993 0
0.458332 0.624993 0
0.416666 0.66666 0
0.458332 0.66666 0
0.458333 0.708327 0
0.499999 0.708327 0
0.458333 0.749994 0
0.499999 0.749994 0
0.416666 0.708327 0
0.458333 0.708327 0
0.416666 0.749994 0
0.458333 0.749994 0
0.416666 0.66666 0
0.458332 0.66666 0
0.416666 0.708327 0
0.458333 0.708327 0
0.458332 0.66666 0
0.499999 0.66666 0
0.458333 0.708327 0
0.499999 0.708327 0
0.458332 0.333326 0
0.499999 0.333326 0
0.458332 0.374993 0
0.499999 0.374993 0
0.458332 0.374993 0
0.499999 0.374993 0
0.458332 0.416659 0
0.499999 0.416659 0
0.416666 0.374993 0
0.458332 0.374993 0
0.416666 0.416659 0
0.458332 0.416659 0
0.416666 0.333327 0
0.458332 0.333326 0
0.416666 0.374993 0
0.458332 0.374993 0
0.125 0.45833 0
0.125 0.416663 0
0.166666 0.458329 0
0.166666 0.416662 0
0.083333 0.458331 0
0.083333 0.416664 0
0.125 0.45833 0
0.125 0.416663 0
0.375 0.874997 0
0.333333 0.874997 0
0.374999 0.83333 0
0.333333 0.83333 0
0.416666 0.874997 0
0.375 0.874997 0
0.416666 0.833329 0
0.374999 0.83333 0
0.374999 0.374993 0
0.374999 0.416659 0
0.333332 0.374993 0
0.333332 0.41666 0
0.374999 0.333327 0
0.374999 0.374993 0
0.333333 0.333327 0
0.333332 0.374993 0
0.416666 0.333327 0
0.416666 0.374993 0
0.374999 0.333327 0
0.374999 0.374993 0
0.416666 0.374993 0
0.416666 0.416659 0
0.374999 0.374993 0
0.374999 0.416659 0
0.791666 0.749997 0
0.791666 0.791664 0
0.749999 0.749996 0
0.75 0.791663 0
0.291666 0.624994 0
0.291666 0.666661 0
0.249999 0.624995 0
0.249999 0.666662 0
0.291666 0.583327 0
0.291666 0.624994 0
0.249999 0.583328 0
0.249999 0.624995 0
0.333332 0.583326 0
0.333332 0.624994 0
0.291666 0.583327 0
0.291666 0.624994 0
0.333332 0.624994 0
0.333333 0.666661 0
0.291666 0.624994 0
0.291666 0.666661 0
0.416666 0.333327 0
0.374999 0.333327 0
0.416666 0.29166 0
0.374999 0.291661 0
0.374999 0.333327 0
0.333333 0.333327 0
0.374999 0.291661 0
0.333333 0.291661 0
0.624999 0.66666 0
0.624999 0.708328 0
0.583332 0.66666 0
0.583333 0.708327 0
0.666666 0.666661 0
0.666666 0.708328 0
0.624999 0.66666 0
0.624999 0.708328 0
0.666666 0.708328 0
0.666666 0.749995 0
0.624999 0.708328 0
0.624999 0.749995 0
0.624999 0.708328 0
0.624999 0.749995 0
0.583333 0.708327 0
0.583333 0.749995 0
0.0416666 0.125 0
0.0416666 0.083333 0
0.0833332 0.124999 0
0.0833333 0.0833327 0
0.0416666 0.166666 0
0.0416666 0.125 0
0.0833332 0.166666 0
0.0833332 0.124999 0
0 0.166667 0
0 0.125 0
0.0416666 0.166666 0
0.0416666 0.125 0
0 0.125 0
0 0.0833333 0
0.0416666 0.125 0
0.0416666 0.083333 0
0.541667 0.0416655 0
0.541667 0 0
0.583333 0.0416656 0
0.583333 0 0
0.541666 0.0833311 0
0.541667 0.0416655 0
0.583333 0.0833311 0
0.583333 0.0416656 0
0.5 0.0833311 0
0.5 0.0416655 0
0.541666 0.0833311 0
0.541667 0.0416655 0
0.5 0.0416655 0
0.5 0 0
0.541667 0.0416655 0
0.541667 0 0
0.666666 0.374994 0
0.708333 0.374994 0
0.666666 0.41666 0
0.708333 0.41666 0
0.666666 0.333327 0
0.708333 0.333328 0
0.666666 0.374994 0
0.708333 0.374994 0
0.708333 0.374994 0
0.749999 0.374995 0
0.708333 0.41666 0
0.749999 0.416661 0
0.333333 0.333327 0
0.333332 0.374993 0
0.291666 0.333328 0
0.291666 0.374994 0
0.333332 0.374993 0
0.333332 0.41666 0
0.291666 0.374994 0
0.291666 0.41666 0
0.291666 0.374994 0
0.291666 0.41666 0
0.249999 0.374994 0
0.249999 0.416661 0
0.666666 0.166663 0
0.624999 0.166663 0
0.666666 0.124997 0
0.625 0.124997 0
0.625 0.124997 0
0.583333 0.124997 0
0.625 0.0833312 0
0.583333 0.0833311 0
0.666666 0.124997 0
0.625 0.124997 0
0.666666 0.0833314 0
0.625 0.0833312 0
0 0.0833333 0
0 0.0416667 0
0.0416666 0.083333 0
0.0416666 0.0416665 0
0 0.0416667 0
0 0 0
0.0416666 0.0416665 0
0.0416667 0 0
0.0416666 0.0416665 0
0.0416667 0 0
0.0833333 0.0416664 0
0.0833333 0 0
0.0416666 0.083333 0
0.0416666 0.0416665 0
0.0833333 0.0833327 0
0.0833333 0.0416664 0
0.208333 0.333329 0
0.166666 0.33333 0
0.208333 0.291663 0
0.166666 0.291663 0
0.208333 0.291663 0
0.166666 0.291663 0
0.208333 0.249996 0
0.166666 0.249997 0
0.791666 0.70833 0
0.791666 0.749997 0
0.749999 0.708329 0
0.749999 0.749996 0
0.791666 0.666663 0
0.791666 0.70833 0
0.749999 0.666662 0
0.749999 0.708329 0
0.958333 0.0416665 0
0.916667 0.0416664 0
0.958333 0 0
0.916667 0 0
1 0.0416667 0
0.958333 0.0416665 0
1 0 0
0.958333 0 0
1 0.0833333 0
0.958333 0.083333 0
1 0.0416667 0
0.958333 0.0416665 0
0.958333 0.083333 0
0.916667 0.0833328 0
0.958333 0.0416665 0
0.916667 0.0416664 0
0.0833331 0.291665 0
0.0833331 0.249998 0
0.125 0.291664 0
0.125 0.249998 0
0.125 0.291664 0
0.125 0.249998 0
0.166666 0.291663 0
0.166666 0.249997 0
0.125 0.33333 0
0.125 0.291664 0
0.166666 0.33333 0
0.166666 0.291663 0
0.0833331 0.333331 0
0.0833331 0.291665 0
0.125 0.33333 0
0.125 0.291664 0
0.333333 0.791662 0
0.333333 0.83333 0
0.291666 0.791663 0
0.291666 0.83333 0
0.291666 0.791663 0
0.291666 0.83333 0
0.25 0.791663 0
0.25 0.83333 0
0.291666 0.749995 0
0.291666 0.791663 0
0.249999 0.749996 0
0.25 0.791663 0
0.333333 0.749995 0
0.333333 0.791662 0
0.291666 0.749995 0
0.291666 0.791663 0
0.083333 0.374998 0
0.125 0.374997 0
0.083333 0.416664 0
0.125 0.416663 0
0.0833331 0.333331 0
0.125 0.33333 0
0.083333 0.374998 0
0.125 0.374997 0
0.125 0.33333 0
0.166666 0.33333 0
0.125 0.374997 0
0.166666 0.374996 0
0.125 0.374997 0
0.166666 0.374996 0
0.125 0.416663 0
0.166666 0.416662 0
0.666666 0.458327 0
0.624999 0.458326 0
0.666666 0.41666 0
0.624999 0.41666 0
0.666666 0.499993 0
0.624999 0.499993 0
0.666666 0.458327 0
0.624999 0.458326 0
0.624999 0.499993 0
0.583332 0.499992 0
0.624999 0.458326 0
0.583332 0.458326 0
0.624999 0.458326 0
0.583332 0.458326 0
0.624999 0.41666 0
0.583332 0.416659 0
0.0416665 0.291666 0
0.0416666 0.249999 0
0.0833331 0.291665 0
0.0833331 0.249998 0
0 0.291667 0
0 0.25 0
0.0416665 0.291666 0
0.0416666 0.249999 0
0.291666 0.499994 0
0.249999 0.499994 0
0.291666 0.458327 0
0.249999 0.458327 0
0.291666 0.458327 0
0.249999 0.458327 0
0.291666 0.41666 0
0.249999 0.416661 0
0.333332 0.458326 0
0.291666 0.458327 0
[...]
POINT_DATA 18612
SCALARS solution_0 double 1
LOOKUP_TABLE default
-0.0300558 -0.0128428 -0.052294 -0.0257194 -0.049521 -0.0300558 -0.080603 -0.052294 -0.0245983 -0.0136489 -0.049521 -0.0300558 -0.0136489 -0.00497926 -0.0300558 -0.0128428 -0.0326135 -0.0367084 0.00948749 0.00556741 -0.0291145 -0.0326135 0.0126685 0.00948749 -0.0704251 -0.0738892 -0.0291145 -0.0326135 -0.0738892 -0.0779015 -0.0326135 -0.0367084 0.0444898 0.0380789 0.0903916 0.0836157 0.049335 0.0444898 0.0950884 0.0903916 0.00556741 0.000696073 0.049335 0.0444898 0.000696073 -0.00529815 0.0444898 0.0380789 -0.0367084 -0.0414811 0.00556741 0.000696073 -0.0779015 -0.0823894 -0.0367084 -0.0414811 -0.0823894 -0.0872497 -0.0414811 -0.0469704 -0.0414811 -0.0469704 0.000696073 -0.00529815 -0.11853 -0.159782 -0.122474 -0.162979 -0.122474 -0.162979 -0.126619 -0.16657 -0.0823894 -0.122474 -0.0872497 -0.126619 -0.0779015 -0.11853 -0.0823894 -0.122474 -0.1472 -0.105638 -0.116794 -0.080603 -0.190321 -0.1472 -0.155755 -0.116794 -0.209996 -0.16679 -0.190321 -0.1472 -0.16679 -0.123013 -0.1472 -0.105638 0.201267 0.155408 0.197645 0.161575 0.241849 0.201267 0.229 0.197645 -0.203784 -0.206452 -0.159782 -0.162979 -0.25209 -0.254918 -0.203784 -0.206452 -0.254918 -0.259251 -0.206452 -0.210017 -0.206452 -0.210017 -0.162979 -0.16657 -0.0738892 -0.114985 -0.0779015 -0.11853 -0.0704251 -0.112013 -0.0738892 -0.114985 -0.112013 -0.154976 -0.114985 -0.157084 -0.114985 -0.157084 -0.11853 -0.159782 -0.246261 -0.167021 -0.200112 -0.126285 -0.167021 -0.0959263 -0.126285 -0.0657662 -0.301506 -0.339843 -0.305409 -0.344899 -0.254918 -0.305409 -0.259251 -0.309135 -0.25209 -0.301506 -0.254918 -0.305409 -0.0677329 -0.049521 -0.105638 -0.080603 -0.0814358 -0.0677329 -0.123013 -0.105638 -0.0441404 -0.0354477 -0.0814358 -0.0677329 -0.0354477 -0.0245983 -0.0677329 -0.049521 -0.141463 -0.184117 -0.150993 -0.1956 -0.103235 -0.141463 -0.111139 -0.150993 -0.0975463 -0.13545 -0.103235 -0.141463 -0.13545 -0.176039 -0.141463 -0.184117 0.0126685 0.00948749 0.0554519 0.0528941 0.00948749 0.00556741 0.0528941 0.049335 0.0528941 0.049335 0.0980568 0.0950884 0.0554519 0.0528941 0.0995738 0.0980568 0.145146 0.143177 0.19352 0.193221 0.144935 0.145146 0.190542 0.19352 0.0995738 0.0980568 0.144935 0.145146 0.0980568 0.0950884 0.145146 0.143177 -0.250019 -0.25209 -0.201879 -0.203784 -0.201879 -0.203784 -0.157084 -0.159782 -0.200397 -0.201879 -0.154976 -0.157084 -0.247634 -0.250019 -0.200397 -0.201879 -0.0474509 -0.0658735 -0.0686269 -0.0940801 -0.0248781 -0.0368193 -0.0474509 -0.0658735 0.275086 0.241849 0.253931 0.229 0.300642 0.275086 0.272406 0.253931 -0.198366 -0.153132 -0.193857 -0.150362 -0.243208 -0.198366 -0.2344 -0.193857 -0.247634 -0.200397 -0.243208 -0.198366 -0.200397 -0.154976 -0.198366 -0.153132 0.0772497 0.114419 0.108068 0.149908 0.0567722 0.0939476 0.0540799 0.0872514 0.0181432 0.0567722 0.0184245 0.0540799 0.0171466 0.0577438 0.0181432 0.0567722 0.0577438 0.0980094 0.0567722 0.0939476 -0.247634 -0.243208 -0.291446 -0.281608 -0.243208 -0.2344 -0.281608 -0.267224 0.0744453 0.121502 0.0836157 0.131742 0.062646 0.107705 0.0744453 0.121502 0.107705 0.15508 0.121502 0.171026 0.121502 0.171026 0.131742 0.18236 -0.00333611 -0.000772209 -0.0136489 -0.00497926 -0.00678169 -0.00333611 -0.0245983 -0.0136489 0 0 -0.00678169 -0.00333611 0 0 -0.00333611 -0.000772209 -0.084329 0 -0.0741645 0 -0.161051 -0.084329 -0.145895 -0.0741645 -0.167663 -0.0883327 -0.161051 -0.084329 -0.0883327 0 -0.084329 0 -0.222195 -0.232076 -0.176039 -0.184117 -0.272845 -0.280704 -0.222195 -0.232076 -0.232076 -0.243048 -0.184117 -0.1956 -0.2344 -0.193857 -0.219924 -0.184468 -0.193857 -0.150362 -0.184468 -0.14462 -0.184468 -0.14462 -0.16923 -0.133945 -0.246261 -0.281438 -0.167021 -0.201105 -0.201105 -0.226762 -0.123497 -0.145895 -0.167021 -0.201105 -0.0959263 -0.123497 0 0 -0.000772209 -0.00161761 0 0 -0.00161761 0 -0.00161761 0 -1.5164e-05 0 -0.000772209 -0.00161761 -0.00497926 -1.5164e-05 -0.165364 -0.127243 -0.173212 -0.13055 -0.173212 -0.13055 -0.16679 -0.123013 0.0432622 0.0772497 0.0685279 0.108068 0.010909 0.0432622 0.0309177 0.0685279 -0.00135409 0.00211668 0 0 0 -0.00135409 0 0 0 0.00100191 0 -0.00135409 0.00100191 0.00245404 -0.00135409 0.00211668 -0.0490237 -0.0441404 -0.0884817 -0.0814358 -0.0884817 -0.0814358 -0.13055 -0.123013 -0.0878113 -0.0884817 -0.127243 -0.13055 -0.0496657 -0.0490237 -0.0878113 -0.0884817 0.205355 0.229 0.182944 0.197645 0.182944 0.197645 0.156158 0.161575 0.159045 0.182944 0.140334 0.156158 0.173755 0.205355 0.159045 0.182944 -0.0452292 -0.0798933 -0.0368193 -0.0658735 -0.0496657 -0.0878113 -0.0452292 -0.0798933 -0.0878113 -0.127243 -0.0798933 -0.114767 -0.0798933 -0.114767 -0.0658735 -0.0940801 -0.13545 -0.130864 -0.176039 -0.170686 -0.0975463 -0.092334 -0.13545 -0.130864 -0.092334 -0.0872497 -0.130864 -0.126619 -0.130864 -0.126619 -0.170686 -0.16657 -0.0145518 -0.0134402 -0.0490237 -0.0441404 0 0 -0.0145518 -0.0134402 -0.0619317 -0.0572158 -0.103175 -0.0959674 -0.103175 -0.0959674 -0.14462 -0.133945 -0.107085 -0.103175 -0.150362 -0.14462 -0.0649138 -0.0619317 -0.107085 -0.103175 -0.0134402 -0.010439 -0.0441404 -0.0354477 0 0 -0.0134402 -0.010439 0 0 -0.010439 -0.00678169 -0.010439 -0.00678169 -0.0354477 -0.0245983 0.0481193 0.0309177 0.0900623 0.0685279 0.0900623 0.0685279 0.134129 0.108068 0.107705 0.0900623 0.15508 0.134129 0.062646 0.0481193 0.107705 0.0900623 0.234243 0.272406 0.222377 0.253931 0.222377 0.253931 0.205355 0.229 0.184108 0.222377 0.173755 0.205355 0.190542 0.234243 0.184108 0.222377 -0.123737 -0.111139 -0.164916 -0.150993 -0.0864778 -0.0527819 -0.0748707 -0.040086 -0.123737 -0.0864778 -0.111139 -0.0748707 -0.0959263 -0.0413559 -0.0657662 -0.0235735 -0.0413559 0 -0.0235735 0 -0.0235735 0 -0.00957825 0 -9.48106e-05 -0.00957825 0 0 0.00468405 -9.48106e-05 0 0 -0.154804 -0.137147 -0.078127 -0.0663381 -0.137147 -0.114783 -0.0663381 -0.0524731 -0.0663381 -0.0524731 0 0 -0.078127 -0.0663381 0 0 0.190542 0.19352 0.234243 0.241114 0.19352 0.193221 0.241114 0.243454 0.241114 0.243454 0.284767 0.290475 0.234243 0.241114 0.272406 0.284767 0.0199444 0.00824429 0.062646 0.0481193 -0.0207197 -0.0298763 0.0199444 0.00824429 -0.0298763 -0.040086 0.00824429 -0.00511324 0.00824429 -0.00511324 0.0481193 0.0309177 -0.231578 -0.190321 -0.195195 -0.155755 -0.020768 0.010909 -0.00511324 0.0309177 -0.0527819 -0.020768 -0.040086 -0.00511324 -0.0413559 -0.0590646 0 0 -0.0959263 -0.123497 -0.0413559 -0.0590646 -0.123497 -0.145895 -0.0590646 -0.0741645 -0.0590646 -0.0741645 0 0 -0.0675134 -0.0649138 -0.109575 -0.107085 -0.109575 -0.107085 -0.153132 -0.150362 -0.112013 -0.109575 -0.154976 -0.153132 -0.0704251 -0.0675134 -0.112013 -0.109575 -0.0531084 -0.0124681 -0.0469704 -0.00529815 -0.092334 -0.0531084 -0.0872497 -0.0469704 -0.0975463 -0.0597169 -0.092334 -0.0531084 -0.0597169 -0.0207197 -0.0531084 -0.0124681 0.00481243 0.00468405 0 0 0.00211668 0.00481243 0 0 0.00245404 0.00205534 0.00211668 0.00481243 0.00205534 -0.0037501 0.00481243 0.00468405 -0.246731 -0.167663 -0.241973 -0.161051 -0.241973 -0.161051 -0.226762 -0.145895 -0.265107 -0.215021 -0.259251 -0.210017 -0.272845 -0.222195 -0.265107 -0.215021 -0.222195 -0.176039 -0.215021 -0.170686 -0.215021 -0.170686 -0.210017 -0.16657 -0.0704251 -0.0291145 -0.0675134 -0.0261483 -0.0291145 0.0126685 -0.0261483 0.0152403 -0.0261483 0.0152403 -0.0236487 0.0171466 -0.0675134 -0.0261483 -0.0649138 -0.0236487 -0.272845 -0.265107 -0.31862 -0.314263 -0.265107 -0.259251 -0.314263 -0.309135 0.0554519 0.0995738 0.0571339 0.0996739 0.0571339 0.0996739 0.0577438 0.0980094 0.0152403 0.0571339 0.0171466 0.0577438 0.0126685 0.0554519 0.0152403 0.0571339 -0.0597169 -0.0667261 -0.0207197 -0.0298763 -0.0975463 -0.103235 -0.0597169 -0.0667261 -0.103235 -0.111139 -0.0667261 -0.0748707 -0.0667261 -0.0748707 -0.0298763 -0.040086 -0.250019 -0.297408 -0.25209 -0.301506 -0.247634 -0.291446 -0.250019 -0.297408 -0.291446 -0.321965 -0.297408 -0.332421 -0.297408 -0.332421 -0.301506 -0.339843 0.144935 0.190542 0.142427 0.184108 0.142427 0.184108 0.137195 0.173755 0.0996739 0.142427 0.0980094 0.137195 0.0995738 0.144935 0.0996739 0.142427 -0.0207197 0.0199444 -0.0124681 0.0299161 0.0199444 0.062646 0.0299161 0.0744453 0.0299161 0.0744453 0.0380789 0.0836157 -0.0124681 0.0299161 -0.00529815 0.0380789 0.000661636 5.46311e-05 0.00100191 0.00245404 0 0.000661636 0 0.00100191 0 -5.23705e-05 0 0.000661636 -5.23705e-05 -0.00477947 0.000661636 5.46311e-05 0.0950884 0.0903916 0.143177 0.138828 0.0903916 0.0836157 0.138828 0.131742 0.138828 0.131742 0.189603 0.18236 0.143177 0.138828 0.193221 0.189603 0.137195 0.173755 0.128614 0.159045 0.128614 0.159045 0.116619 0.140334 0.0939476 0.128614 0.0872514 0.116619 0.0980094 0.137195 0.0939476 0.128614 0.300642 0.272406 0.318405 0.284767 -0.0649138 -0.0236487 -0.0619317 -0.0214632 -0.0236487 0.0171466 -0.0214632 0.0181432 -0.0214632 0.0181432 -0.0188682 0.0184245 -0.0619317 -0.0214632 -0.0572158 -0.0188682 -0.00658055 -0.0220396 0.00205534 -0.0037501 5.46311e-05 -0.00658055 0.00245404 0.00205534 -0.00477947 -0.0198973 5.46311e-05 -0.00658055 -0.154804 -0.078127 -0.16541 -0.0859838 -0.078127 0 -0.0859838 0 -0.0859838 0 -0.0883327 0 -0.16541 -0.0859838 -0.167663 -0.0883327 0.241203 0.234148 0.29024 0.284108 0.243454 0.241203 0.290475 0.29024 0.193221 0.189603 0.243454 0.241203 0.189603 0.18236 0.241203 0.234148 -0.0435355 -0.0257194 -0.014299 -0.00602742 -0.014299 -0.00602742 0 0 -0.0253074 -0.014299 0 0 -0.0654525 -0.0435355 -0.0253074 -0.014299 -0.114783 -0.089975 -0.0524731 -0.0383512 -0.089975 -0.0654525 -0.0383512 -0.0253074 -0.0383512 -0.0253074 0 0 -0.0524731 -0.0383512 0 0 0.221896 0.271799 0.234148 0.284108 0.171026 0.221896 0.18236 0.234148 0.15508 0.20398 0.171026 0.221896 0.20398 0.253052 0.221896 0.271799 -0.231341 -0.195195 -0.177493 -0.145233 -0.195195 -0.155755 -0.145233 -0.111818 -0.145233 -0.111818 -0.089975 -0.0654525 -0.177493 -0.145233 -0.114783 -0.089975 -0.262929 -0.231341 -0.205977 -0.177493 -0.205977 -0.177493 -0.137147 -0.114783 -0.227522 -0.205977 -0.154804 -0.137147 -0.227522 -0.154804 -0.24161 -0.16541 -0.24161 -0.16541 -0.246731 -0.167663 -0.00497926 -1.5164e-05 -0.0128428 -0.00113692 -1.5164e-05 0 -0.00113692 0 -0.00113692 0 -0.00602742 0 -0.0128428 -0.00113692 -0.0257194 -0.00602742 0.17996 0.149908 0.227704 0.195639 0.20398 0.17996 0.253052 0.227704 0.15508 0.134129 0.20398 0.17996 0.134129 0.108068 0.17996 0.149908 -0.0800048 -0.052294 -0.0435355 -0.0257194 -0.111818 -0.0800048 -0.0654525 -0.0435355 -0.155755 -0.116794 -0.111818 -0.0800048 -0.116794 -0.080603 -0.0800048 -0.052294 0.246293 0.222001 0.243293 0.221861 0.222001 0.1959 0.221861 0.198211 0.243293 0.221861 0.241849 0.221558 0.221861 0.198211 0.221558 0.201267 0.1959 0.168083 0.198211 0.173345 0.168083 0.138907 0.173345 0.14664 0.198211 0.173345 0.201267 0.178338 0.173345 0.14664 0.178338 0.155408 0.0310699 0.0475073 0.0537471 0.0713254 0.0475073 0.0677696 0.0713254 0.0928194 0.0537471 0.0713254 0.0748522 0.0935712 0.0713254 0.0928194 0.0935712 0.115874 0.138907 0.108853 0.14664 0.119135 0.108853 0.0785379 0.119135 0.091349 0.14664 0.119135 0.155408 0.129567 0.119135 0.091349 0.129567 0.104221 0.0785379 0.0484827 0.091349 0.0638739 0.0484827 0.0196755 0.0638739 0.0376039 0.091349 0.0638739 0.104221 0.079147 0.0638739 0.0376039 0.079147 0.0550353 -0.0376189 -0.0203035 -0.0518092 -0.0288959 -0.0203035 -0.0093286 -0.0288959 -0.0124801 -0.0518092 -0.0288959 -0.0538761 -0.029312 -0.0288959 -0.0124801 -0.029312 -0.00982028 0.323486 0.307165 0.310383 0.296806 0.307165 0.28892 0.296806 0.280847 0.310383 0.296806 0.300642 0.287864 0.296806 0.280847 0.287864 0.275086 0.28892 0.268564 0.280847 0.263267 0.268564 0.246293 0.263267 0.243293 0.280847 0.263267 0.275086 0.258468 0.263267 0.243293 0.258468 0.241849 -0.267868 -0.27935 -0.265014 -0.284402 -0.27935 -0.283913 -0.284402 -0.295697 -0.265014 -0.284402 -0.253609 -0.279816 -0.284402 -0.295697 -0.279816 -0.29839 -0.253609 -0.279816 -0.2343 -0.265716 -0.279816 -0.29839 -0.265716 -0.290726 -0.2343 -0.265716 -0.208914 -0.243281 -0.265716 -0.290726 -0.243281 -0.273005 -0.21644 -0.246731 -0.20152 -0.237105 -0.246731 -0.267868 -0.237105 -0.265014 -0.20152 -0.237105 -0.181623 -0.220286 -0.237105 -0.265014 -0.220286 -0.253609 0.0430146 0.0582177 0.0606677 0.0774081 0.0582177 0.0748522 0.0774081 0.0951274 0.0606677 0.0774081 0.0772497 0.0958345 0.0774081 0.0951274 0.0958345 0.114419 0.0748522 0.0935712 0.0951274 0.114769 0.0935712 0.115874 0.114769 0.137621 0.0951274 0.114769 0.114419 0.13507 0.114769 0.137621 0.13507 0.158249 0.114419 0.13507 0.132164 0.154495 0.13507 0.158249 0.154495 0.177576 0.132164 0.154495 0.149908 0.172774 0.154495 0.177576 0.172774 0.195639 -0.122161 -0.10817 -0.115419 -0.0990273 -0.10817 -0.0942564 -0.0990273 -0.0832688 -0.115419 -0.0990273 -0.105086 -0.0878347 -0.0990273 -0.0832688 -0.0878347 -0.0714326 -0.148798 -0.135691 -0.149 -0.132063 -0.135691 -0.122161 -0.132063 -0.115419 -0.149 -0.132063 -0.14194 -0.123224 -0.132063 -0.115419 -0.123224 -0.105086 -0.0290333 -0.00654301 -0.00667547 0.0136653 -0.00654301 0.0138128 0.0136653 0.0328649 -0.00667547 0.0136653 0.0196755 0.0376039 0.0136653 0.0328649 0.0376039 0.0550353 -0.0538761 -0.029312 -0.0455102 -0.0214157 -0.029312 -0.00982028 -0.0214157 -0.000820441 -0.0455102 -0.0214157 -0.0290333 -0.00654301 -0.0214157 -0.000820441 -0.00654301 0.0138128 -0.0146939 -0.0289734 -0.0134591 -0.0263394 -0.0289734 -0.0452292 -0.0263394 -0.0410242 -0.0134591 -0.0263394 -0.0115123 -0.0232047 -0.0263394 -0.0410242 -0.0232047 -0.0368193 -0.280704 -0.28372 -0.25639 -0.261523 -0.28372 -0.283913 -0.261523 -0.26551 -0.25639 -0.261523 -0.232076 -0.237562 -0.261523 -0.26551 -0.237562 -0.243048 -0.0675568 -0.0549473 -0.0538843 -0.0401812 -0.0549473 -0.0428052 -0.0401812 -0.027 -0.0538843 -0.0401812 -0.0410044 -0.0266905 -0.0401812 -0.027 -0.0266905 -0.0127271 -0.0942564 -0.0806755 -0.0832688 -0.0682168 -0.0806755 -0.0675568 -0.0682168 -0.0538843 -0.0832688 -0.0682168 -0.0714326 -0.0558882 -0.0682168 -0.0538843 -0.0558882 -0.0410044 -0.13581 -0.178244 -0.1189 -0.160781 -0.178244 -0.21644 -0.160781 -0.20152 -0.1189 -0.160781 -0.10103 -0.140643 -0.160781 -0.20152 -0.140643 -0.181623 -0.0577833 -0.0942974 -0.0477312 -0.0800337 -0.0942974 -0.13581 -0.0800337 -0.1189 -0.0477312 -0.0800337 -0.0384469 -0.0661711 -0.0800337 -0.1189 -0.0661711 -0.10103 0.219944 0.237543 0.185582 0.204475 0.237543 0.253689 0.204475 0.222046 0.185582 0.204475 0.158249 0.177576 0.204475 0.222046 0.177576 0.195639 0.179654 0.200745 0.143584 0.165313 0.200745 0.219944 0.165313 0.185582 0.143584 0.165313 0.115874 0.137621 0.165313 0.185582 0.137621 0.158249 -0.0127271 0.00101624 -0.000303898 0.0146269 0.00101624 0.0147742 0.0146269 0.0294414 -0.000303898 0.0146269 0.010909 0.0270856 0.0146269 0.0294414 0.0270856 0.0432622 0.0147742 0.0287291 0.0294414 0.0448888 0.0287291 0.0430146 0.0448888 0.0606677 0.0294414 0.0448888 0.0432622 0.0602559 0.0448888 0.0606677 0.0602559 0.0772497 -0.0428052 -0.0310344 -0.027 -0.0141651 -0.0310344 -0.0194948 -0.0141651 -0.00146835 -0.027 -0.0141651 -0.0127271 0.00101624 -0.0141651 -0.00146835 0.00101624 0.0147742 -0.248427 -0.230341 -0.247766 -0.225794 -0.230341 -0.20949 -0.225794 -0.202738 -0.247766 -0.225794 -0.243048 -0.219324 -0.225794 -0.202738 -0.219324 -0.1956 -0.267868 -0.261519 -0.27935 -0.266293 -0.261519 -0.248427 -0.266293 -0.247766 -0.27935 -0.266293 -0.283913 -0.26551 -0.266293 -0.247766 -0.26551 -0.243048 0.129074 0.156257 0.0939033 0.120068 0.156257 0.179654 0.120068 0.143584 0.0939033 0.120068 0.0677696 0.0928194 0.120068 0.143584 0.0928194 0.115874 -0.337658 -0.343116 -0.330605 -0.340576 -0.343116 -0.346065 -0.340576 -0.347282 -0.330605 -0.340576 -0.311658 -0.32574 -0.340576 -0.347282 -0.32574 -0.336303 -0.346065 -0.347169 -0.347282 -0.351408 -0.347169 -0.347019 -0.351408 -0.353505 -0.347282 -0.351408 -0.336303 -0.343648 -0.351408 -0.353505 -0.343648 -0.348347 -0.344899 -0.353298 -0.346038 -0.354079 -0.353298 -0.351432 -0.354079 -0.350838 -0.346038 -0.354079 -0.347019 -0.353505 -0.354079 -0.350838 -0.353505 -0.348347 0 0.00229566 0 0.00263385 0.00229566 0.00735418 0.00263385 0.00877248 0 0.00263385 0 0.00296576 0.00263385 0.00877248 0.00296576 0.0100464 0.00735418 0.011519 0.00877248 0.0150613 0.011519 0.0143749 0.0150613 0.0200393 0.00877248 0.0150613 0.0100464 0.0180149 0.0150613 0.0200393 0.0180149 0.0250677 -0.179446 -0.173737 -0.196652 -0.194256 -0.173737 -0.164916 -0.194256 -0.187412 -0.196652 -0.194256 -0.211573 -0.213759 -0.194256 -0.187412 -0.213759 -0.20949 -0.14194 -0.132794 -0.160807 -0.152884 -0.132794 -0.123737 -0.152884 -0.144327 -0.160807 -0.152884 -0.179446 -0.173737 -0.152884 -0.144327 -0.173737 -0.164916 -0.00681841 -0.00926848 -0.0149942 -0.0193565 -0.00926848 -0.0115123 -0.0193565 -0.0232047 -0.0149942 -0.0193565 -0.0248781 -0.0308487 -0.0193565 -0.0232047 -0.0308487 -0.0368193 -0.00178209 -0.00429325 -0.00587104 -0.0105298 -0.00429325 -0.00681841 -0.0105298 -0.0149942 -0.00587104 -0.0105298 -0.0118903 -0.0185152 -0.0105298 -0.0149942 -0.0185152 -0.0248781 -0.0577833 -0.0681752 -0.0942974 -0.107981 -0.0681752 -0.078368 -0.107981 -0.120264 -0.0942974 -0.107981 -0.13581 -0.150832 -0.107981 -0.120264 -0.150832 -0.163086 -0.0714326 -0.0558882 -0.0612525 -0.0453307 -0.0558882 -0.0410044 -0.0453307 -0.0301272 -0.0612525 -0.0453307 -0.0527819 -0.036775 -0.0453307 -0.0301272 -0.036775 -0.020768 -0.0410044 -0.0266905 -0.0301272 -0.0150243 -0.0266905 -0.0127271 -0.0150243 -0.000303898 -0.0301272 -0.0150243 -0.020768 -0.00492947 -0.0150243 -0.000303898 -0.00492947 0.010909 -0.0308827 -0.0661979 -0.0277935 -0.0616388 -0.0661979 -0.107232 -0.0616388 -0.102525 -0.0277935 -0.0616388 -0.0245252 -0.0559117 -0.0616388 -0.102525 -0.0559117 -0.0960804 -0.00178209 -0.00587104 0.000712025 -0.00122621 -0.00587104 -0.0118903 -0.00122621 -0.00509686 0.000712025 -0.00122621 0.00310341 0.00333075 -0.00122621 -0.00509686 0.00333075 0.00165766 0.00310341 0.00333075 0.00547806 0.00763212 0.00333075 0.00165766 0.00763212 0.00820239 0.00547806 0.00763212 0.00735418 0.011519 0.00763212 0.00820239 0.011519 0.0143749 -0.314263 -0.311699 -0.334089 -0.332843 -0.311699 -0.309135 -0.332843 -0.331206 -0.334089 -0.332843 -0.346065 -0.347169 -0.332843 -0.331206 -0.347169 -0.347019 -0.31862 -0.316441 -0.33291 -0.334344 -0.316441 -0.314263 -0.334344 -0.334089 -0.33291 -0.334344 -0.337658 -0.343116 -0.334344 -0.334089 -0.343116 -0.346065 -0.31862 -0.33291 -0.318523 -0.329031 -0.33291 -0.337658 -0.329031 -0.32879 -0.318523 -0.329031 -0.316221 -0.321486 -0.329031 -0.32879 -0.321486 -0.315573 -0.316221 -0.321486 -0.310052 -0.309105 -0.321486 -0.315573 -0.309105 -0.29714 -0.310052 -0.309105 -0.29839 -0.290726 -0.309105 -0.29714 -0.290726 -0.273005 -0.280704 -0.301665 -0.28372 -0.300849 -0.301665 -0.316221 -0.300849 -0.310052 -0.28372 -0.300849 -0.283913 -0.295697 -0.300849 -0.310052 -0.295697 -0.29839 -0.272845 -0.295732 -0.276775 -0.299767 -0.295732 -0.31862 -0.299767 -0.318523 -0.276775 -0.299767 -0.280704 -0.301665 -0.299767 -0.318523 -0.301665 -0.316221 0.350138 0.332027 0.360572 0.339903 0.332027 0.318405 0.339903 0.324145 0.360572 0.339903 0.368872 0.345707 0.339903 0.324145 0.345707 0.328645 0.323486 0.310383 0.337737 0.322313 0.310383 0.300642 0.322313 0.309524 0.337737 0.322313 0.350138 0.332027 0.322313 0.309524 0.332027 0.318405 0.318405 0.301586 0.324145 0.306852 0.301586 0.284767 0.306852 0.287621 0.324145 0.306852 0.328645 0.310318 0.306852 0.287621 0.310318 0.290475 -0.00698781 -0.0188585 -0.0051401 -0.014421 -0.0188585 -0.0384469 -0.014421 -0.0302121 -0.0051401 -0.014421 -0.00361841 -0.0106749 -0.014421 -0.0302121 -0.0106749 -0.0231018 0 -0.00133817 0 -0.000927647 -0.00133817 -0.00698781 -0.000927647 -0.0051401 0 -0.000927647 0 -0.000595763 -0.000927647 -0.0051401 -0.000595763 -0.00361841 0 -0.00224293 0 -0.00191841 -0.00224293 -0.0115025 -0.00191841 -0.00913011 0 -0.00191841 0 -0.00133817 -0.00191841 -0.00913011 -0.00133817 -0.00698781 -0.0115025 -0.0298876 -0.00913011 -0.