# vtk DataFile Version 3.0
#This file was generated by the deal.II library on 2020/11/19 at 14:54:53
ASCII
DATASET UNSTRUCTURED_GRID

POINTS 2304 double
0.125 0.124999 0
0.125 0.0833324 0
0.166666 0.124998 0
0.166667 0.0833322 0
0.125 0.166665 0
0.125 0.124999 0
0.166666 0.166664 0
0.166666 0.124998 0
0.0833332 0.166666 0
0.0833332 0.124999 0
0.125 0.166665 0
0.125 0.124999 0
0.0833332 0.124999 0
0.0833333 0.0833327 0
0.125 0.124999 0
0.125 0.0833324 0
0.458332 0.541659 0
0.499999 0.541659 0
0.458332 0.583326 0
0.499999 0.583326 0
0.416666 0.541659 0
0.458332 0.541659 0
0.416666 0.583326 0
0.458332 0.583326 0
0.416666 0.499992 0
0.458332 0.499992 0
0.416666 0.541659 0
0.458332 0.541659 0
0.458332 0.499992 0
0.499999 0.499992 0
0.458332 0.541659 0
0.499999 0.541659 0
0.541666 0.624993 0
0.583332 0.624993 0
0.541666 0.66666 0
0.583332 0.66666 0
0.499999 0.624993 0
0.541666 0.624993 0
0.499999 0.66666 0
0.541666 0.66666 0
0.499999 0.583326 0
0.541666 0.583326 0
0.499999 0.624993 0
0.541666 0.624993 0
0.541666 0.583326 0
0.583332 0.583326 0
0.541666 0.624993 0
0.583332 0.624993 0
0.499999 0.541659 0
0.541666 0.541659 0
0.499999 0.583326 0
0.541666 0.583326 0
0.499999 0.499992 0
0.541666 0.499992 0
0.499999 0.541659 0
0.541666 0.541659 0
0.541666 0.499992 0
0.583332 0.499992 0
0.541666 0.541659 0
0.583332 0.541659 0
0.541666 0.541659 0
0.583332 0.541659 0
0.541666 0.583326 0
0.583332 0.583326 0
0.499999 0.458326 0
0.499999 0.416659 0
0.541666 0.458326 0
0.541666 0.416659 0
0.541666 0.458326 0
0.541666 0.416659 0
0.583332 0.458326 0
0.583332 0.416659 0
0.541666 0.499992 0
0.541666 0.458326 0
0.583332 0.499992 0
0.583332 0.458326 0
0.499999 0.499992 0
0.499999 0.458326 0
0.541666 0.499992 0
0.541666 0.458326 0
0.208333 0.20833 0
0.166666 0.208331 0
0.208333 0.166664 0
0.166666 0.166664 0
0.25 0.20833 0
0.208333 0.20833 0
0.25 0.166664 0
0.208333 0.166664 0
0.249999 0.249996 0
0.208333 0.249996 0
0.25 0.20833 0
0.208333 0.20833 0
0.208333 0.249996 0
0.166666 0.249997 0
0.208333 0.20833 0
0.166666 0.208331 0
0.291666 0.874997 0
0.25 0.874998 0
0.291666 0.83333 0
0.25 0.83333 0
0.333333 0.874997 0
0.291666 0.874997 0
0.333333 0.83333 0
0.291666 0.83333 0
0.333333 0.916665 0
0.291666 0.916665 0
0.333333 0.874997 0
0.291666 0.874997 0
0.291666 0.916665 0
0.25 0.916665 0
0.291666 0.874997 0
0.25 0.874998 0
0.499999 0.374993 0
0.541666 0.374993 0
0.499999 0.416659 0
0.541666 0.416659 0
0.499999 0.333326 0
0.541666 0.333326 0
0.499999 0.374993 0
0.541666 0.374993 0
0.541666 0.333326 0
0.583332 0.333327 0
0.541666 0.374993 0
0.583332 0.374993 0
0.541666 0.374993 0
0.583332 0.374993 0
0.541666 0.416659 0
0.583332 0.416659 0
0.458332 0.499992 0
0.458332 0.458326 0
0.499999 0.499992 0
0.499999 0.458326 0
0.416666 0.499992 0
0.416666 0.458326 0
0.458332 0.499992 0
0.458332 0.458326 0
0.416666 0.458326 0
0.416666 0.416659 0
0.458332 0.458326 0
0.458332 0.416659 0
0.458332 0.458326 0
0.458332 0.416659 0
0.499999 0.458326 0
0.499999 0.416659 0
0.708333 0.166663 0
0.708333 0.124997 0
0.75 0.166664 0
0.75 0.124998 0
0.666666 0.166663 0
0.666666 0.124997 0
0.708333 0.166663 0
0.708333 0.124997 0
0.666666 0.124997 0
0.666666 0.0833314 0
0.708333 0.124997 0
0.708333 0.0833316 0
0.708333 0.124997 0
0.708333 0.0833316 0
0.75 0.124998 0
0.75 0.0833317 0
0.499999 0.29166 0
0.499999 0.249994 0
0.541666 0.29166 0
0.541666 0.249994 0
0.541666 0.29166 0
0.541666 0.249994 0
0.583333 0.29166 0
0.583333 0.249994 0
0.541666 0.333326 0
0.541666 0.29166 0
0.583332 0.333327 0
0.583333 0.29166 0
0.499999 0.333326 0
0.499999 0.29166 0
0.541666 0.333326 0
0.541666 0.29166 0
0.125 0.208331 0
0.125 0.166665 0
0.166666 0.208331 0
0.166666 0.166664 0
0.125 0.249998 0
0.125 0.208331 0
0.166666 0.249997 0
0.166666 0.208331 0
0.0833331 0.249998 0
0.0833331 0.208332 0
0.125 0.249998 0
0.125 0.208331 0
0.0833331 0.208332 0
0.0833332 0.166666 0
0.125 0.208331 0
0.125 0.166665 0
0.875 0.791665 0
0.875 0.833332 0
0.833333 0.791664 0
0.833333 0.833331 0
0.875 0.749998 0
0.875 0.791665 0
0.833333 0.749997 0
0.833333 0.791664 0
0.916666 0.749998 0
0.916666 0.791665 0
0.875 0.749998 0
0.875 0.791665 0
0.916666 0.791665 0
0.916667 0.833332 0
0.875 0.791665 0
0.875 0.833332 0
0.249999 0.458327 0
0.208333 0.458328 0
0.249999 0.416661 0
0.208333 0.416662 0
0.249999 0.499994 0
0.208333 0.499995 0
0.249999 0.458327 0
0.208333 0.458328 0
0.208333 0.499995 0
0.166666 0.499996 0
0.208333 0.458328 0
0.166666 0.458329 0
0.208333 0.458328 0
0.166666 0.458329 0
0.208333 0.416662 0
0.166666 0.416662 0
0.708333 0.458327 0
0.708333 0.41666 0
0.749999 0.458328 0
0.749999 0.416661 0
0.708332 0.499994 0
0.708333 0.458327 0
0.749999 0.499994 0
0.749999 0.458328 0
0.666666 0.499993 0
0.666666 0.458327 0
0.708332 0.499994 0
0.708333 0.458327 0
0.666666 0.458327 0
0.666666 0.41666 0
0.708333 0.458327 0
0.708333 0.41666 0
0.416666 0.583326 0
0.458332 0.583326 0
0.416666 0.624993 0
0.458332 0.624993 0
0.458332 0.583326 0
0.499999 0.583326 0
0.458332 0.624993 0
0.499999 0.624993 0
0.458332 0.624993 0
0.499999 0.624993 0
0.458332 0.66666 0
0.499999 0.66666 0
0.416666 0.624993 0
0.458332 0.624993 0
0.416666 0.66666 0
0.458332 0.66666 0
0.458333 0.708327 0
0.499999 0.708327 0
0.458333 0.749994 0
0.499999 0.749994 0
0.416666 0.708327 0
0.458333 0.708327 0
0.416666 0.749994 0
0.458333 0.749994 0
0.416666 0.66666 0
0.458332 0.66666 0
0.416666 0.708327 0
0.458333 0.708327 0
0.458332 0.66666 0
0.499999 0.66666 0
0.458333 0.708327 0
0.499999 0.708327 0
0.416667 0.958332 0
0.458333 0.958332 0
0.416667 1 0
0.458333 1 0
0.416666 0.916665 0
0.458333 0.916665 0
0.416667 0.958332 0
0.458333 0.958332 0
0.458333 0.916665 0
0.5 0.916665 0
0.458333 0.958332 0
0.5 0.958332 0
0.458333 0.958332 0
0.5 0.958332 0
0.458333 1 0
0.5 1 0
0.25 0.916665 0
0.208333 0.916665 0
0.25 0.874998 0
0.208333 0.874998 0
0.208333 0.916665 0
0.166667 0.916666 0
0.208333 0.874998 0
0.166666 0.874998 0
0.208333 0.874998 0
0.166666 0.874998 0
0.208333 0.833331 0
0.166666 0.833331 0
0.25 0.874998 0
0.208333 0.874998 0
0.25 0.83333 0
0.208333 0.833331 0
0.0416666 0.916666 0
0.0416666 0.875 0
0.0833333 0.916666 0
0.0833332 0.874999 0
0 0.916667 0
0 0.875 0
0.0416666 0.916666 0
0.0416666 0.875 0
0 0.875 0
0 0.833333 0
0.0416666 0.875 0
0.0416666 0.833333 0
0.0416666 0.875 0
0.0416666 0.833333 0
0.0833332 0.874999 0
0.0833332 0.833332 0
0.458332 0.333326 0
0.499999 0.333326 0
0.458332 0.374993 0
0.499999 0.374993 0
0.458332 0.374993 0
0.499999 0.374993 0
0.458332 0.416659 0
0.499999 0.416659 0
0.416666 0.374993 0
0.458332 0.374993 0
0.416666 0.416659 0
0.458332 0.416659 0
0.416666 0.333327 0
0.458332 0.333326 0
0.416666 0.374993 0
0.458332 0.374993 0
0.125 0.45833 0
0.125 0.416663 0
0.166666 0.458329 0
0.166666 0.416662 0
0.125 0.499997 0
0.125 0.45833 0
0.166666 0.499996 0
0.166666 0.458329 0
0.083333 0.499998 0
0.083333 0.458331 0
0.125 0.499997 0
0.125 0.45833 0
0.083333 0.458331 0
0.083333 0.416664 0
0.125 0.45833 0
0.125 0.416663 0
0.375 0.874997 0
0.333333 0.874997 0
0.374999 0.83333 0
0.333333 0.83333 0
0.416666 0.874997 0
0.375 0.874997 0
0.416666 0.833329 0
0.374999 0.83333 0
0.416666 0.916665 0
0.375 0.916665 0
0.416666 0.874997 0
0.375 0.874997 0
0.375 0.916665 0
0.333333 0.916665 0
0.375 0.874997 0
0.333333 0.874997 0
0.374999 0.374993 0
0.374999 0.416659 0
0.333332 0.374993 0
0.333332 0.41666 0
0.374999 0.333327 0
0.374999 0.374993 0
0.333333 0.333327 0
0.333332 0.374993 0
0.416666 0.333327 0
0.416666 0.374993 0
0.374999 0.333327 0
0.374999 0.374993 0
0.416666 0.374993 0
0.416666 0.416659 0
0.374999 0.374993 0
0.374999 0.416659 0
0.791666 0.333329 0
0.749999 0.333328 0
0.791666 0.291663 0
0.749999 0.291662 0
0.791666 0.291663 0
0.749999 0.291662 0
0.791666 0.249996 0
0.749999 0.249996 0
0.833333 0.291663 0
0.791666 0.291663 0
0.833333 0.249997 0
0.791666 0.249996 0
0.833333 0.33333 0
0.791666 0.333329 0
0.833333 0.291663 0
0.791666 0.291663 0
0.833333 0.749997 0
0.833333 0.791664 0
0.791666 0.749997 0
0.791666 0.791664 0
0.833333 0.791664 0
0.833333 0.833331 0
0.791666 0.791664 0
0.791666 0.833331 0
0.791666 0.791664 0
0.791666 0.833331 0
0.75 0.791663 0
0.75 0.83333 0
0.791666 0.749997 0
0.791666 0.791664 0
0.749999 0.749996 0
0.75 0.791663 0
0.291666 0.624994 0
0.291666 0.666661 0
0.249999 0.624995 0
0.249999 0.666662 0
0.291666 0.583327 0
0.291666 0.624994 0
0.249999 0.583328 0
0.249999 0.624995 0
0.333332 0.583326 0
0.333332 0.624994 0
0.291666 0.583327 0
0.291666 0.624994 0
0.333332 0.624994 0
0.333333 0.666661 0
0.291666 0.624994 0
0.291666 0.666661 0
0.416666 0.333327 0
0.374999 0.333327 0
0.416666 0.29166 0
0.374999 0.291661 0
0.374999 0.333327 0
0.333333 0.333327 0
0.374999 0.291661 0
0.333333 0.291661 0
0.374999 0.291661 0
0.333333 0.291661 0
0.374999 0.249995 0
0.333333 0.249995 0
0.416666 0.29166 0
0.374999 0.291661 0
0.416666 0.249994 0
0.374999 0.249995 0
0.624999 0.66666 0
0.624999 0.708328 0
0.583332 0.66666 0
0.583333 0.708327 0
0.666666 0.666661 0
0.666666 0.708328 0
0.624999 0.66666 0
0.624999 0.708328 0
0.666666 0.708328 0
0.666666 0.749995 0
0.624999 0.708328 0
0.624999 0.749995 0
0.624999 0.708328 0
0.624999 0.749995 0
0.583333 0.708327 0
0.583333 0.749995 0
0.875 0.541664 0
0.875 0.58333 0
0.833333 0.541663 0
0.833333 0.583329 0
0.875 0.499997 0
0.875 0.541664 0
0.833333 0.499996 0
0.833333 0.541663 0
0.916666 0.499998 0
0.916666 0.541665 0
0.875 0.499997 0
0.875 0.541664 0
0.916666 0.541665 0
0.916666 0.583331 0
0.875 0.541664 0
0.875 0.58333 0
0.958333 0.916666 0
0.916667 0.916666 0
0.958333 0.875 0
0.916667 0.874999 0
0.958333 0.875 0
0.916667 0.874999 0
0.958333 0.833333 0
0.916667 0.833332 0
1 0.875 0
0.958333 0.875 0
1 0.833333 0
0.958333 0.833333 0
1 0.916667 0
0.958333 0.916666 0
1 0.875 0
0.958333 0.875 0
0.0416666 0.125 0
0.0416666 0.083333 0
0.0833332 0.124999 0
0.0833333 0.0833327 0
0.0416666 0.166666 0
0.0416666 0.125 0
0.0833332 0.166666 0
0.0833332 0.124999 0
0 0.166667 0
0 0.125 0
0.0416666 0.166666 0
0.0416666 0.125 0
0 0.125 0
0 0.0833333 0
0.0416666 0.125 0
0.0416666 0.083333 0
[...]
POINT_DATA 2304
SCALARS solution_0 double 1
LOOKUP_TABLE default
-0.0173664 -0.00784348 -0.0303871 -0.015531 -0.0279271 -0.0173664 -0.0459566 -0.0303871 -0.0137614 -0.00790846 -0.0279271 -0.0173664 -0.00790846 -0.00304758 -0.0173664 -0.00784348 -0.00771148 -0.0105984 0.0203699 0.0174267 -0.00531795 -0.00771148 0.0227133 0.0203699 -0.0329489 -0.0350924 -0.00531795 -0.00771148 -0.0350924 -0.037713 -0.00771148 -0.0105984 0.0429521 0.0382366 0.0734566 0.0683736 0.046636 0.0429521 0.0771077 0.0734566 0.0174267 0.0138497 0.046636 0.0429521 0.0138497 0.00953824 0.0429521 0.0382366 -0.0105984 -0.0139727 0.0174267 0.0138497 -0.037713 -0.0407469 -0.0105984 -0.0139727 -0.0407469 -0.0440921 -0.0139727 -0.017842 -0.0139727 -0.017842 0.0138497 0.00953824 -0.0644066 -0.0916651 -0.0668979 -0.093485 -0.0668979 -0.093485 -0.0696382 -0.0957244 -0.0407469 -0.0668979 -0.0440921 -0.0696382 -0.037713 -0.0644066 -0.0407469 -0.0668979 -0.0840354 -0.0594341 -0.0674173 -0.0459566 -0.109835 -0.0840354 -0.0911332 -0.0674173 -0.119769 -0.0941698 -0.109835 -0.0840354 -0.0941698 -0.068538 -0.0840354 -0.0594341 0.117024 0.0873175 0.121729 0.0966405 0.144002 0.117024 0.14403 0.121729 0.143964 0.113091 0.144002 0.117024 0.113091 0.0803768 0.117024 0.0873175 -0.120953 -0.122349 -0.0916651 -0.093485 -0.15283 -0.154544 -0.120953 -0.122349 -0.154544 -0.157208 -0.122349 -0.124544 -0.122349 -0.124544 -0.093485 -0.0957244 -0.0350924 -0.0623233 -0.037713 -0.0644066 -0.0329489 -0.0607111 -0.0350924 -0.0623233 -0.0607111 -0.089323 -0.0623233 -0.0903125 -0.0623233 -0.0903125 -0.0644066 -0.0916651 -0.133106 -0.0898671 -0.101605 -0.0635367 -0.158985 -0.114171 -0.133106 -0.0898671 -0.114171 -0.0705199 -0.0898671 -0.0512748 -0.0898671 -0.0512748 -0.0635367 -0.0323647 -0.184147 -0.206703 -0.186883 -0.210258 -0.186883 -0.210258 -0.189764 -0.211959 -0.154544 -0.186883 -0.157208 -0.189764 -0.15283 -0.184147 -0.154544 -0.186883 -0.0376014 -0.0279271 -0.0594341 -0.0459566 -0.0446507 -0.0376014 -0.068538 -0.0594341 -0.0237534 -0.0194066 -0.0446507 -0.0376014 -0.0194066 -0.0137614 -0.0376014 -0.0279271 0.0201212 0.0486938 0.0519045 0.0795466 0.00151411 0.0201212 0.0320248 0.0519045 -0.0291727 -0.0201783 0.00151411 0.0201212 -0.0201783 5.13737e-05 0.0201212 0.0486938 -0.0499561 -0.0426445 -0.0735313 -0.062383 -0.0253855 -0.0214929 -0.0499561 -0.0426445 -0.0214929 -0.0161805 -0.0426445 -0.0331145 -0.0426445 -0.0331145 -0.062383 -0.0485076 -0.0801602 -0.108449 -0.0878104 -0.117708 -0.0553244 -0.0801602 -0.0613668 -0.0878104 -0.0512614 -0.0757132 -0.0553244 -0.0801602 -0.0757132 -0.102318 -0.0801602 -0.108449 0.0227133 0.0203699 0.0513834 0.0494388 0.0203699 0.0174267 0.0494388 0.046636 0.0494388 0.046636 0.0794753 0.0771077 0.0513834 0.0494388 0.0805239 0.0794753 0.109913 0.108461 0.139401 0.139528 0.109369 0.109913 0.136444 0.139401 0.0805239 0.0794753 0.109369 0.109913 0.0794753 0.0771077 0.109913 0.108461 0.393611 0.418598 1 1 0.196188 0.216582 0.393611 0.418598 0.216582 0.233022 0.418598 0.440389 0.418598 0.440389 1 1 0.0803768 0.0474965 0.0873175 0.0567316 0.0474965 0.0169317 0.0567316 0.0279407 0.0567316 0.0279407 0.0701858 0.0444165 0.0873175 0.0567316 0.0966405 0.0701858 -0.0216892 -0.00476999 -0.0210518 -0.00817515 0 0 -0.0216892 -0.00476999 0 0 -0.00476999 0.000440477 -0.00476999 0.000440477 -0.00817515 0.00697491 -0.151433 -0.15283 -0.120075 -0.120953 -0.120075 -0.120953 -0.0903125 -0.0916651 -0.119225 -0.120075 -0.089323 -0.0903125 -0.149414 -0.151433 -0.119225 -0.120075 -0.0220477 -0.033036 -0.0331145 -0.0485076 -0.00971695 -0.0220477 -0.0161805 -0.0331145 -0.00339765 -0.0108486 -0.00971695 -0.0220477 -0.0108486 -0.0175126 -0.0220477 -0.033036 0.167058 0.144002 0.162585 0.14403 0.185492 0.167058 0.176861 0.162585 0.196188 0.171882 0.185492 0.167058 0.171882 0.143964 0.167058 0.144002 -0.117472 -0.0881866 -0.113506 -0.085918 -0.145489 -0.117472 -0.138271 -0.113506 -0.149414 -0.119225 -0.145489 -0.117472 -0.119225 -0.089323 -0.117472 -0.0881866 -0.161472 -0.172346 -0.156252 -0.181242 -0.156252 -0.181242 -0.134543 -0.16981 -0.116401 -0.156252 -0.0909761 -0.134543 -0.132713 -0.161472 -0.116401 -0.156252 0.0320248 0.0519045 0.0564572 0.0791025 0.0519045 0.0795466 0.0791025 0.106952 0.0791025 0.106952 0.103771 0.131332 0.0564572 0.0791025 0.0783682 0.103771 0.0493099 0.0722844 0.0450043 0.0647762 0.0245015 0.0493099 0.0228372 0.0450043 0.0250102 0.0517073 0.0245015 0.0493099 0.0517073 0.0773517 0.0493099 0.0722844 -0.149414 -0.145489 -0.176051 -0.168288 -0.145489 -0.138271 -0.168288 -0.156515 -0.168288 -0.156515 -0.180353 -0.163972 -0.176051 -0.168288 -0.192546 -0.180353 0.0616336 0.0922292 0.0683736 0.0997894 0.0530278 0.082161 0.0616336 0.0922292 0.082161 0.112009 0.0922292 0.123468 0.0922292 0.123468 0.0997894 0.131687 -0.0734175 -0.0575477 -0.0624998 -0.0408282 -0.0881457 -0.0734175 -0.0856127 -0.0624998 -0.0638552 -0.0599706 -0.0881457 -0.0734175 -0.0599706 -0.0539916 -0.0734175 -0.0575477 0.0608118 0.166757 -0.0144561 0.0497667 -0.0144561 0.0497667 -0.0295772 5.13737e-05 0 -0.0144561 0 -0.0295772 0 0.0608118 0 -0.0144561 -0.00196414 -0.00053694 -0.00790846 -0.00304758 -0.00378123 -0.00196414 -0.0137614 -0.00790846 0 0 -0.00378123 -0.00196414 0 0 -0.00196414 -0.00053694 -0.00817515 0.00697491 0.00503194 0.0220359 0.00503194 0.0220359 0.0279407 0.0444165 -0.00790955 0.00503194 0.0169317 0.0279407 -0.0210518 -0.00817515 -0.00790955 0.00503194 -0.0600107 0 -0.0547045 0 -0.108669 -0.0600107 -0.100708 -0.0547045 -0.110989 -0.0609558 -0.108669 -0.0600107 -0.0609558 0 -0.0600107 0 0.468306 1 0.493963 1 0.219053 0.468306 0.24233 0.493963 0.166757 0.411533 0.219053 0.468306 0.411533 1 0.468306 1 -0.00770042 -0.0255787 -0.00661551 -0.0226347 -0.00661551 -0.0226347 -0.00476443 -0.0175126 0 -0.00661551 0 -0.00476443 0 -0.00770042 0 -0.00661551 -0.133124 -0.140498 -0.102318 -0.108449 -0.16655 -0.171675 -0.133124 -0.140498 -0.171675 -0.172346 -0.140498 -0.148257 -0.140498 -0.148257 -0.108449 -0.117708 -0.193146 -0.158985 -0.171326 -0.133106 -0.171326 -0.133106 -0.140339 -0.101605 -0.193192 -0.171326 -0.16981 -0.140339 -0.20589 -0.193146 -0.193192 -0.171326 -0.138271 -0.113506 -0.126762 -0.106075 -0.113506 -0.085918 -0.106075 -0.0813258 -0.106075 -0.0813258 -0.0945319 -0.0735313 -0.126762 -0.106075 -0.110789 -0.0945319 -0.0539916 -0.0473139 -0.0575477 -0.0420325 -0.0473139 -0.0408976 -0.0420325 -0.0274056 -0.0420325 -0.0274056 -0.0210749 -0.00288833 -0.0575477 -0.0420325 -0.0408282 -0.0210749 -0.158985 -0.177609 -0.114171 -0.133841 -0.177609 -0.188916 -0.133841 -0.147525 -0.133841 -0.147525 -0.0876169 -0.100708 -0.114171 -0.133841 -0.0705199 -0.0876169 0 0 -0.00053694 -0.000397916 0 0 -0.000397916 0 -0.000397916 0 -6.47483e-05 0 -0.00053694 -0.000397916 -0.00304758 -6.47483e-05 -0.0218447 -0.0211779 -0.0473139 -0.0408976 -0.0224961 -0.0218447 -0.0539916 -0.0473139 0 0 -0.0224961 -0.0218447 0 0 -0.0218447 -0.0211779 -0.0388 -0.0635367 -0.0163914 -0.0323647 -0.0191891 -0.0388 -0.00526899 -0.0163914 -0.0384902 -0.0682724 -0.0191891 -0.0388 -0.0682724 -0.101605 -0.0388 -0.0635367 -0.0874722 -0.132713 -0.0687249 -0.116401 -0.0687249 -0.116401 -0.0484191 -0.0909761 -0.0277581 -0.0687249 -0.0177871 -0.0484191 -0.0395175 -0.0874722 -0.0277581 -0.0687249 0.253799 0.260013 0.151937 0.170176 0.151937 0.170176 0.106952 0.131332 0.129987 0.151937 0.0795466 0.106952 0.24233 0.253799 0.129987 0.151937 -0.119861 -0.0965059 -0.119769 -0.0941698 -0.110789 -0.0911068 -0.119861 -0.0965059 -0.0911068 -0.0691884 -0.0965059 -0.0718971 -0.0965059 -0.0718971 -0.0941698 -0.068538 0.0355918 0.0564572 0.053739 0.0783682 0.0154296 0.0355918 0.0298925 0.053739 -0.00288833 0.0144549 0.0154296 0.0355918 0.0144549 0.0320248 0.0355918 0.0564572 -0.000202474 0.00208789 0 0 0 -0.000202474 0 0 0 0.000821284 0 -0.000202474 0.000821284 0.00168335 -0.000202474 0.00208789 0 -0.0216892 0 0.096089 -0.0216892 -0.0210518 0.096089 0.129024 0.096089 0.129024 1 1 0 0.096089 1 1 -0.0350873 -0.0291727 -0.0133335 0.00151411 -0.0133335 0.00151411 0.0144549 0.0320248 -0.0274056 -0.0133335 -0.00288833 0.0144549 -0.0408976 -0.0350873 -0.0274056 -0.0133335 -0.134543 -0.16981 -0.102328 -0.140339 -0.102328 -0.140339 -0.0682724 -0.101605 -0.0631078 -0.102328 -0.0384902 -0.0682724 -0.0909761 -0.134543 -0.0631078 -0.102328 -0.150072 -0.127096 -0.148257 -0.117708 -0.161472 -0.150072 -0.172346 -0.148257 -0.132713 -0.135981 -0.161472 -0.150072 -0.135981 -0.126578 -0.150072 -0.127096 -0.025956 -0.0237534 -0.0478778 -0.0446507 -0.0478778 -0.0446507 -0.0718971 -0.068538 -0.0467984 -0.0478778 -0.0691884 -0.0718971 -0.0255787 -0.025956 -0.0467984 -0.0478778 -0.0791451 -0.062383 -0.0609999 -0.0485076 -0.0911068 -0.0791451 -0.0691884 -0.0609999 -0.110789 -0.0945319 -0.0911068 -0.0791451 -0.0945319 -0.0735313 -0.0791451 -0.062383 0.135873 0.14403 0.118482 0.121729 0.118482 0.121729 0.0982691 0.0966405 0.108248 0.118482 0.0927052 0.0982691 0.12097 0.135873 0.108248 0.118482 -0.0226347 -0.0416146 -0.0175126 -0.033036 -0.0255787 -0.0467984 -0.0226347 -0.0416146 -0.0467984 -0.0691884 -0.0416146 -0.0609999 -0.0416146 -0.0609999 -0.033036 -0.0485076 0.0647762 0.0810935 0.0553589 0.0677681 0.0810935 0.0927052 0.0677681 0.0751686 0.0677681 0.0751686 0.0530586 0.056443 0.0553589 0.0677681 0.044712 0.0530586 -0.0757132 -0.0725182 -0.102318 -0.0984791 -0.0512614 -0.0476232 -0.0757132 -0.0725182 -0.0476232 -0.0440921 -0.0725182 -0.0696382 -0.0725182 -0.0696382 -0.0984791 -0.0957244 -0.00785875 -0.00710184 -0.025956 -0.0237534 -0.00770042 -0.00785875 -0.0255787 -0.025956 0 0 -0.00770042 -0.00785875 0 0 -0.00785875 -0.00710184 0.076297 0.0701858 0.0538103 0.0444165 0.0751686 0.076297 0.056443 0.0538103 0.0927052 0.0982691 0.0751686 0.076297 0.0982691 0.0966405 0.076297 0.0701858 -0.0211779 -0.0212567 -0.0408976 -0.0350873 0 0 -0.0211779 -0.0212567 0 0 -0.0212567 -0.0230915 -0.0212567 -0.0230915 -0.0350873 -0.0291727 0.30006 1 0.411533 1 0.0608118 0.30006 0.166757 0.411533 0 0 0.0608118 0.30006 0 1 0.30006 1 -0.0230915 -0.0271187 -0.0291727 -0.0201783 0 0 -0.0230915 -0.0271187 0 0 -0.0271187 -0.0295772 -0.0271187 -0.0295772 -0.0201783 5.13737e-05 0.0497667 0.102094 5.13737e-05 0.0486938 0.166757 0.219053 0.0497667 0.102094 0.219053 0.24233 0.102094 0.129987 0.102094 0.129987 0.0486938 0.0795466 -0.0279932 -0.0253855 -0.0548487 -0.0499561 -0.0548487 -0.0499561 -0.0813258 -0.0735313 -0.0577101 -0.0548487 -0.085918 -0.0813258 -0.0297544 -0.0279932 -0.0577101 -0.0548487 -0.00710184 -0.00562828 -0.0237534 -0.0194066 0 0 -0.00710184 -0.00562828 0 0 -0.00562828 -0.00378123 -0.00562828 -0.00378123 -0.0194066 -0.0137614 -0.126762 -0.110789 -0.140251 -0.119861 -0.140251 -0.119861 -0.14351 -0.119769 -0.156515 -0.140251 -0.163972 -0.14351 -0.138271 -0.126762 -0.156515 -0.140251 -0.206398 -0.212794 -0.177609 -0.188916 -0.193146 -0.206398 -0.158985 -0.177609 -0.20589 -0.211132 -0.193146 -0.206398 -0.211132 -0.211959 -0.206398 -0.212794 0.0424372 0.0298925 0.0693531 0.053739 0.0693531 0.053739 0.0970093 0.0783682 0.082161 0.0693531 0.112009 0.0970093 0.0530278 0.0424372 0.082161 0.0693531 0.143964 0.335504 0.113091 0.303631 0.335504 1 0.303631 1 0.303631 1 0.270875 1 0.113091 0.303631 0.0803768 0.270875 0.0474965 0.237968 0.0169317 0.204581 0.0803768 0.270875 0.0474965 0.237968 0.270875 1 0.237968 1 0.237968 1 0.204581 1 0.0160779 0.0251546 0.0194208 0.032869 0.0107755 0.0148582 0.0160779 0.0251546 0.0148582 0.0176661 0.0251546 0.0325451 0.0251546 0.0325451 0.032869 0.044712 0 0 -0.0215698 -0.0225565 0 0 -0.0225565 -0.0224961 -0.0225565 -0.0224961 -0.0599706 -0.0539916 -0.0215698 -0.0225565 -0.0638552 -0.0599706 0.159693 0.176861 0.149715 0.162585 0.149715 0.162585 0.135873 0.14403 0.130381 0.149715 0.12097 0.135873 0.136444 0.159693 0.130381 0.149715 -0.210258 -0.213943 -0.211959 -0.212794 -0.206703 -0.210807 -0.210258 -0.213943 -0.210807 -0.192256 -0.213943 -0.193552 -0.213943 -0.193552 -0.212794 -0.188916 0 0.00558729 0 0.00612165 0 0.00431788 0 0.00558729 0.00431788 0.0107755 0.00558729 0.0160779 0.00558729 0.0160779 0.00612165 0.0194208 -0.0720617 -0.0613668 -0.0993657 -0.0878104 -0.0993657 -0.0878104 -0.127096 -0.117708 -0.108214 -0.0993657 -0.126578 -0.127096 -0.0856127 -0.0720617 -0.108214 -0.0993657 0 0 7.59351e-05 -0.00242453 0 0 -0.00242453 -0.00476443 -0.00242453 -0.00476443 -0.0108486 -0.0175126 7.59351e-05 -0.00242453 -0.00339765 -0.0108486 0.365741 1 0.335504 1 0.171882 0.365741 0.143964 0.335504 0.196188 0.393611 0.171882 0.365741 0.393611 1 0.365741 1 -0.0856127 -0.0624998 -0.0720617 -0.0473754 -0.0624998 -0.0408282 -0.0473754 -0.0252199 -0.0473754 -0.0252199 -0.0377997 -0.015471 -0.0720617 -0.0473754 -0.0613668 -0.0377997 -0.0705199 -0.0339161 -0.0512748 -0.0215581 -0.0339161 0 -0.0215581 0 -0.0215581 0 -0.0104826 0 -0.0512748 -0.0215581 -0.0323647 -0.0104826 -0.00526899 -0.0163914 0.00230427 -0.00227704 -0.0163914 -0.0323647 -0.00227704 -0.0104826 -0.00227704 -0.0104826 0 0 0.00230427 -0.00227704 0 0 -0.0991942 -0.0865769 -0.0512504 -0.0426318 -0.0865769 -0.0712999 -0.0426318 -0.0331761 -0.0426318 -0.0331761 0 0 -0.0512504 -0.0426318 0 0 -0.100106 -0.104005 -0.135981 -0.126578 -0.0874722 -0.100106 -0.132713 -0.135981 -0.0395175 -0.0510301 -0.0874722 -0.100106 -0.0510301 -0.059794 -0.100106 -0.104005 0.136444 0.139401 0.159693 0.165821 0.139401 0.139528 0.165821 0.168252 0.165821 0.168252 0.186655 0.19196 0.159693 0.165821 0.176861 0.186655 0.025109 0.0166006 0.0530278 0.0424372 -0.00149333 -0.00809526 0.025109 0.0166006 -0.00809526 -0.015471 0.0166006 0.00688428 0.0166006 0.00688428 0.0424372 0.0298925 0.170835 0.204581 1 1 0.129024 0.170835 1 1 -0.0210518 -0.00790955 0.129024 0.170835 -0.00790955 0.0169317 0.170835 0.204581 -0.134961 -0.109835 -0.115323 -0.0911332 -0.157774 -0.134961 -0.138121 -0.115323 -0.163972 -0.14351 -0.157774 -0.134961 -0.14351 -0.119769 -0.134961 -0.109835 -0.0408282 -0.0210749 -0.0252199 -0.00460917 -0.0210749 -0.00288833 -0.00460917 0.0154296 -0.00460917 0.0154296 0.00688428 0.0298925 -0.0252199 -0.00460917 -0.015471 0.00688428 -0.0215698 -0.0638552 -0.0193034 -0.0641342 -0.0193034 -0.0641342 -0.0159092 -0.059794 0 -0.0193034 0 -0.0159092 0 -0.0215698 0 -0.0193034 -0.0339161 -0.045577 0 0 -0.0705199 -0.0876169 -0.0339161 -0.045577 -0.0876169 -0.100708 -0.045577 -0.0547045 -0.045577 -0.0547045 0 0 -0.031248 -0.0297544 -0.0593694 -0.0577101 -0.0593694 -0.0577101 -0.0881866 -0.085918 -0.0607111 -0.0593694 -0.089323 -0.0881866 -0.0329489 -0.031248 -0.0607111 -0.0593694 -0.0221703 0.00441914 -0.017842 0.00953824 -0.0476232 -0.0221703 -0.0440921 -0.017842 -0.0512614 -0.0268524 -0.0476232 -0.0221703 -0.0268524 -0.00149333 -0.0221703 0.00441914 0.00345016 0.00230427 0 0 0.00208789 0.00345016 0 0 0.00168335 0.000441152 0.00208789 0.00345016 0.000441152 -0.00526899 0.00345016 0.00230427 -0.155933 -0.110989 -0.154836 -0.108669 -0.154836 -0.108669 -0.147525 -0.100708 -0.193552 -0.154836 -0.188916 -0.147525 -0.192256 -0.155933 -0.193552 -0.154836 7.59351e-05 -0.00339765 0.00241489 0.00405961 0.00241489 0.00405961 0.00431788 0.0107755 0 0.00241489 0 0.00431788 0 7.59351e-05 0 0.00241489 -0.192506 -0.174063 -0.203688 -0.185614 -0.203688 -0.185614 -0.210807 -0.192256 -0.20105 -0.203688 -0.206703 -0.210807 -0.192546 -0.192506 -0.20105 -0.203688 -0.161232 -0.127923 -0.157208 -0.124544 -0.16655 -0.133124 -0.161232 -0.127923 -0.133124 -0.102318 -0.127923 -0.0984791 -0.127923 -0.0984791 -0.124544 -0.0957244 -0.0329489 -0.00531795 -0.031248 -0.00346564 -0.00531795 0.0227133 -0.00346564 0.0243422 -0.00346564 0.0243422 -0.00219303 0.0250102 -0.031248 -0.00346564 -0.0297544 -0.00219303 -0.0103044 -0.0306433 -0.00486833 -0.016893 -0.0177871 -0.0484191 -0.0103044 -0.0306433 -0.0484191 -0.0909761 -0.0306433 -0.0631078 -0.0306433 -0.0631078 -0.016893 -0.0384902 -0.192746 -0.189764 -0.211132 -0.211959 -0.194619 -0.192746 -0.20589 -0.211132 -0.16655 -0.161232 -0.194619 -0.192746 -0.161232 -0.157208 -0.192746 -0.189764 0.0513834 0.0805239 0.0522711 0.0799695 0.0522711 0.0799695 0.0517073 0.0773517 0.0243422 0.0522711 0.0250102 0.0517073 0.0227133 0.0513834 0.0243422 0.0522711 -0.0268524 -0.031837 -0.00149333 -0.00809526 -0.0512614 -0.0553244 -0.0268524 -0.031837 -0.0553244 -0.0613668 -0.031837 -0.0377997 -0.031837 -0.0377997 -0.00809526 -0.015471 -0.151433 -0.180904 -0.15283 -0.184147 -0.149414 -0.176051 -0.151433 -0.180904 -0.176051 -0.192546 -0.180904 -0.20105 -0.180904 -0.20105 -0.184147 -0.206703 0.0450043 0.0647762 0.039195 0.0553589 0.039195 0.0553589 0.0325451 0.044712 0.0203721 0.039195 0.0176661 0.0325451 0.0228372 0.0450043 0.0203721 0.039195 0.109369 0.136444 0.106508 0.130381 0.106508 0.130381 0.100917 0.12097 0.0799695 0.106508 0.0773517 0.100917 0.0805239 0.109369 0.0799695 0.106508 -0.0641342 -0.0992959 -0.059794 -0.104005 -0.0638552 -0.0881457 -0.0641342 -0.0992959 -0.0881457 -0.0856127 -0.0992959 -0.108214 -0.0992959 -0.108214 -0.104005 -0.126578 -0.00149333 0.025109 0.00441914 0.0323233 0.025109 0.0530278 0.0323233 0.0616336 0.0323233 0.0616336 0.0382366 0.0683736 0.00441914 0.0323233 0.00953824 0.0382366 -0.194619 -0.20589 -0.192392 -0.193192 -0.192392 -0.193192 -0.181242 -0.16981 -0.171675 -0.192392 -0.172346 -0.181242 -0.16655 -0.194619 -0.171675 -0.192392 0.000344991 -0.000827253 0.000821284 0.00168335 0 0.000344991 0 0.000821284 0 -0.000498326 0 0.000344991 -0.000498326 -0.00486833 0.000344991 -0.000827253 0.0771077 0.0734566 0.108461 0.105121 0.0734566 0.0683736 0.105121 0.0997894 0.105121 0.0997894 0.136971 0.131687 0.108461 0.105121 0.139528 0.136971 0.100917 0.12097 0.0923698 0.108248 0.0923698 0.108248 0.0810935 0.0927052 0.0722844 0.0923698 0.0647762 0.0810935 0.0773517 0.100917 0.0722844 0.0923698 0.216582 0.199009 0.233022 0.207597 0.196188 0.185492 0.216582 0.199009 0.185492 0.176861 0.199009 0.186655 0.199009 0.186655 0.207597 0.19196 -0.000157529 0.0203721 0.00109583 0.0176661 -0.0214929 -0.000157529 -0.0161805 0.00109583 -0.0253855 -0.00086756 -0.0214929 -0.000157529 -0.00086756 0.0228372 -0.000157529 0.0203721 -0.0297544 -0.00219303 -0.0279932 -0.00141605 -0.00219303 0.0250102 -0.00141605 0.0245015 -0.00141605 0.0245015 -0.00086756 0.0228372 -0.0279932 -0.00141605 -0.0253855 -0.00086756 -0.00665272 -0.0191891 0.000441152 -0.00526899 -0.000827253 -0.00665272 0.00168335 0.000441152 -0.00486833 -0.016893 -0.000827253 -0.00665272 -0.016893 -0.0384902 -0.00665272 -0.0191891 -0.180353 -0.163972 -0.177152 -0.157774 -0.177152 -0.157774 -0.158031 -0.138121 -0.192506 -0.177152 -0.174063 -0.158031 -0.192546 -0.180353 -0.192506 -0.177152 -0.0991942 -0.0512504 -0.107668 -0.0577579 -0.0512504 0 -0.0577579 0 -0.0577579 0 -0.0609558 0 -0.107668 -0.0577579 -0.110989 -0.0609558 0.16711 0.162385 0.192829 0.189287 0.168252 0.16711 0.19196 0.192829 0.139528 0.136971 0.168252 0.16711 0.136971 0.131687 0.16711 0.162385 -0.00527205 -0.0277581 -0.003099 -0.0177871 0 -0.00527205 0 -0.003099 0 -0.00825451 0 -0.00527205 -0.00825451 -0.0395175 -0.00527205 -0.0277581 -0.0119691 -0.0159092 -0.0510301 -0.059794 -0.00825451 -0.0119691 -0.0395175 -0.0510301 0 0 -0.00825451 -0.0119691 0 0 -0.0119691 -0.0159092 -0.0262236 -0.015531 -0.00919122 -0.00427229 -0.00919122 -0.00427229 0 0 -0.0158375 -0.00919122 0 0 -0.0396599 -0.0262236 -0.0158375 -0.00919122 -0.0712999 -0.0551069 -0.0331761 -0.0239836 -0.0551069 -0.0396599 -0.0239836 -0.0158375 -0.0239836 -0.0158375 0 0 -0.0331761 -0.0239836 0 0 0.153913 0.181319 0.162385 0.189287 0.123468 0.153913 0.131687 0.162385 0.112009 0.141433 0.123468 0.153913 0.141433 0.168915 0.153913 0.181319 0.263061 0.495425 0.260377 0.486244 0.495425 1 0.486244 1 0.486244 1 0.474119 1 0.260377 0.486244 0.254663 0.474119 -0.138121 -0.115323 -0.107941 -0.0873298 -0.115323 -0.0911332 -0.0873298 -0.0663854 -0.0873298 -0.0663854 -0.0551069 -0.0396599 -0.107941 -0.0873298 -0.0712999 -0.0551069 -0.158031 -0.138121 -0.126369 -0.107941 -0.126369 -0.107941 -0.0865769 -0.0712999 -0.141126 -0.126369 -0.0991942 -0.0865769 -0.174063 -0.158031 -0.141126 -0.126369 0.00405961 0.00291506 0.0107755 0.0148582 -0.00339765 -0.00971695 0.00405961 0.00291506 -