# vtk DataFile Version 3.0
#This file was generated by the deal.II library on 2020/11/19 at 14:50:43
ASCII
DATASET UNSTRUCTURED_GRID

POINTS 19164 double
0.125 0.124999 0
0.125 0.0833324 0
0.166666 0.124998 0
0.166667 0.0833322 0
0.125 0.166665 0
0.125 0.124999 0
0.166666 0.166664 0
0.166666 0.124998 0
0.0833332 0.166666 0
0.0833332 0.124999 0
0.125 0.166665 0
0.125 0.124999 0
0.0833332 0.124999 0
0.0833333 0.0833327 0
0.125 0.124999 0
0.125 0.0833324 0
0.458332 0.541659 0
0.499999 0.541659 0
0.458332 0.583326 0
0.499999 0.583326 0
0.416666 0.541659 0
0.458332 0.541659 0
0.416666 0.583326 0
0.458332 0.583326 0
0.416666 0.499992 0
0.458332 0.499992 0
0.416666 0.541659 0
0.458332 0.541659 0
0.458332 0.499992 0
0.499999 0.499992 0
0.458332 0.541659 0
0.499999 0.541659 0
0.541666 0.624993 0
0.583332 0.624993 0
0.541666 0.66666 0
0.583332 0.66666 0
0.499999 0.624993 0
0.541666 0.624993 0
0.499999 0.66666 0
0.541666 0.66666 0
0.499999 0.583326 0
0.541666 0.583326 0
0.499999 0.624993 0
0.541666 0.624993 0
0.541666 0.583326 0
0.583332 0.583326 0
0.541666 0.624993 0
0.583332 0.624993 0
0.499999 0.541659 0
0.541666 0.541659 0
0.499999 0.583326 0
0.541666 0.583326 0
0.499999 0.499992 0
0.541666 0.499992 0
0.499999 0.541659 0
0.541666 0.541659 0
0.541666 0.499992 0
0.583332 0.499992 0
0.541666 0.541659 0
0.583332 0.541659 0
0.541666 0.541659 0
0.583332 0.541659 0
0.541666 0.583326 0
0.583332 0.583326 0
0.499999 0.458326 0
0.499999 0.416659 0
0.541666 0.458326 0
0.541666 0.416659 0
0.541666 0.458326 0
0.541666 0.416659 0
0.583332 0.458326 0
0.583332 0.416659 0
0.541666 0.499992 0
0.541666 0.458326 0
0.583332 0.499992 0
0.583332 0.458326 0
0.499999 0.499992 0
0.499999 0.458326 0
0.541666 0.499992 0
0.541666 0.458326 0
0.208333 0.20833 0
0.166666 0.208331 0
0.208333 0.166664 0
0.166666 0.166664 0
0.25 0.20833 0
0.208333 0.20833 0
0.25 0.166664 0
0.208333 0.166664 0
0.249999 0.249996 0
0.208333 0.249996 0
0.25 0.20833 0
0.208333 0.20833 0
0.208333 0.249996 0
0.166666 0.249997 0
0.208333 0.20833 0
0.166666 0.208331 0
0.499999 0.374993 0
0.541666 0.374993 0
0.499999 0.416659 0
0.541666 0.416659 0
0.541666 0.374993 0
0.583332 0.374993 0
0.541666 0.416659 0
0.583332 0.416659 0
0.458332 0.499992 0
0.458332 0.458326 0
0.499999 0.499992 0
0.499999 0.458326 0
0.416666 0.499992 0
0.416666 0.458326 0
0.458332 0.499992 0
0.458332 0.458326 0
0.416666 0.458326 0
0.416666 0.416659 0
0.458332 0.458326 0
0.458332 0.416659 0
0.458332 0.458326 0
0.458332 0.416659 0
0.499999 0.458326 0
0.499999 0.416659 0
0.708333 0.166663 0
0.708333 0.124997 0
0.75 0.166664 0
0.75 0.124998 0
0.666666 0.166663 0
0.666666 0.124997 0
0.708333 0.166663 0
0.708333 0.124997 0
0.666666 0.124997 0
0.666666 0.0833314 0
0.708333 0.124997 0
0.708333 0.0833316 0
0.708333 0.124997 0
0.708333 0.0833316 0
0.75 0.124998 0
0.75 0.0833317 0
0.125 0.208331 0
0.125 0.166665 0
0.166666 0.208331 0
0.166666 0.166664 0
0.125 0.249998 0
0.125 0.208331 0
0.166666 0.249997 0
0.166666 0.208331 0
0.0833331 0.249998 0
0.0833331 0.208332 0
0.125 0.249998 0
0.125 0.208331 0
0.0833331 0.208332 0
0.0833332 0.166666 0
0.125 0.208331 0
0.125 0.166665 0
0.249999 0.458327 0
0.208333 0.458328 0
0.249999 0.416661 0
0.208333 0.416662 0
0.208333 0.499995 0
0.166666 0.499996 0
0.208333 0.458328 0
0.166666 0.458329 0
0.208333 0.458328 0
0.166666 0.458329 0
0.208333 0.416662 0
0.166666 0.416662 0
0.708333 0.458327 0
0.708333 0.41666 0
0.749999 0.458328 0
0.749999 0.416661 0
0.708332 0.499994 0
0.708333 0.458327 0
0.749999 0.499994 0
0.749999 0.458328 0
0.666666 0.499993 0
0.666666 0.458327 0
0.708332 0.499994 0
0.708333 0.458327 0
0.666666 0.458327 0
0.666666 0.41666 0
0.708333 0.458327 0
0.708333 0.41666 0
0.416666 0.583326 0
0.458332 0.583326 0
0.416666 0.624993 0
0.458332 0.624993 0
0.458332 0.583326 0
0.499999 0.583326 0
0.458332 0.624993 0
0.499999 0.624993 0
0.458332 0.624993 0
0.499999 0.624993 0
0.458332 0.66666 0
0.499999 0.66666 0
0.416666 0.624993 0
0.458332 0.624993 0
0.416666 0.66666 0
0.458332 0.66666 0
0.458333 0.708327 0
0.499999 0.708327 0
0.458333 0.749994 0
0.499999 0.749994 0
0.416666 0.708327 0
0.458333 0.708327 0
0.416666 0.749994 0
0.458333 0.749994 0
0.416666 0.66666 0
0.458332 0.66666 0
0.416666 0.708327 0
0.458333 0.708327 0
0.458332 0.66666 0
0.499999 0.66666 0
0.458333 0.708327 0
0.499999 0.708327 0
0.458332 0.374993 0
0.499999 0.374993 0
0.458332 0.416659 0
0.499999 0.416659 0
0.416666 0.374993 0
0.458332 0.374993 0
0.416666 0.416659 0
0.458332 0.416659 0
0.125 0.45833 0
0.125 0.416663 0
0.166666 0.458329 0
0.166666 0.416662 0
0.125 0.499997 0
0.125 0.45833 0
0.166666 0.499996 0
0.166666 0.458329 0
0.416666 0.374993 0
0.416666 0.416659 0
0.374999 0.374993 0
0.374999 0.416659 0
0.291666 0.624994 0
0.291666 0.666661 0
0.249999 0.624995 0
0.249999 0.666662 0
0.291666 0.583327 0
0.291666 0.624994 0
0.249999 0.583328 0
0.249999 0.624995 0
0.333332 0.583326 0
0.333332 0.624994 0
0.291666 0.583327 0
0.291666 0.624994 0
0.333332 0.624994 0
0.333333 0.666661 0
0.291666 0.624994 0
0.291666 0.666661 0
0.624999 0.66666 0
0.624999 0.708328 0
0.583332 0.66666 0
0.583333 0.708327 0
0.666666 0.666661 0
0.666666 0.708328 0
0.624999 0.66666 0
0.624999 0.708328 0
0.666666 0.708328 0
0.666666 0.749995 0
0.624999 0.708328 0
0.624999 0.749995 0
0.624999 0.708328 0
0.624999 0.749995 0
0.583333 0.708327 0
0.583333 0.749995 0
0.0416666 0.125 0
0.0416666 0.083333 0
0.0833332 0.124999 0
0.0833333 0.0833327 0
0.0416666 0.166666 0
0.0416666 0.125 0
0.0833332 0.166666 0
0.0833332 0.124999 0
0 0.166667 0
0 0.125 0
0.0416666 0.166666 0
0.0416666 0.125 0
0 0.125 0
0 0.0833333 0
0.0416666 0.125 0
0.0416666 0.083333 0
0.541667 0.0416655 0
0.541667 0 0
0.583333 0.0416656 0
0.583333 0 0
0.541666 0.0833311 0
0.541667 0.0416655 0
0.583333 0.0833311 0
0.583333 0.0416656 0
0.5 0.0833311 0
0.5 0.0416655 0
0.541666 0.0833311 0
0.541667 0.0416655 0
0.5 0.0416655 0
0.5 0 0
0.541667 0.0416655 0
0.541667 0 0
0.666666 0.208329 0
0.666666 0.166663 0
0.708333 0.208329 0
0.708333 0.166663 0
0.708333 0.208329 0
0.708333 0.166663 0
0.75 0.20833 0
0.75 0.166664 0
0.666666 0.166663 0
0.624999 0.166663 0
0.666666 0.124997 0
0.625 0.124997 0
0.624999 0.166663 0
0.583333 0.166663 0
0.625 0.124997 0
0.583333 0.124997 0
0.625 0.124997 0
0.583333 0.124997 0
0.625 0.0833312 0
0.583333 0.0833311 0
0.666666 0.124997 0
0.625 0.124997 0
0.666666 0.0833314 0
0.625 0.0833312 0
0 0.0833333 0
0 0.0416667 0
0.0416666 0.083333 0
0.0416666 0.0416665 0
0 0.0416667 0
0 0 0
0.0416666 0.0416665 0
0.0416667 0 0
0.0416666 0.0416665 0
0.0416667 0 0
0.0833333 0.0416664 0
0.0833333 0 0
0.0416666 0.083333 0
0.0416666 0.0416665 0
0.0833333 0.0833327 0
0.0833333 0.0416664 0
0.791666 0.124998 0
0.75 0.124998 0
0.791666 0.083332 0
0.75 0.0833317 0
0.833333 0.124998 0
0.791666 0.124998 0
0.833333 0.0833322 0
0.791666 0.083332 0
0.833333 0.166665 0
0.791666 0.166664 0
0.833333 0.124998 0
0.791666 0.124998 0
0.791666 0.166664 0
0.75 0.166664 0
0.791666 0.124998 0
0.75 0.124998 0
0.249999 0.291662 0
0.208333 0.291663 0
0.249999 0.249996 0
0.208333 0.249996 0
0.249999 0.333328 0
0.208333 0.333329 0
0.249999 0.291662 0
0.208333 0.291663 0
0.208333 0.333329 0
0.166666 0.33333 0
0.208333 0.291663 0
0.166666 0.291663 0
0.208333 0.291663 0
0.166666 0.291663 0
0.208333 0.249996 0
0.166666 0.249997 0
0.958333 0.0416665 0
0.916667 0.0416664 0
0.958333 0 0
0.916667 0 0
1 0.0416667 0
0.958333 0.0416665 0
1 0 0
0.958333 0 0
1 0.0833333 0
0.958333 0.083333 0
1 0.0416667 0
0.958333 0.0416665 0
0.958333 0.083333 0
0.916667 0.0833328 0
0.958333 0.0416665 0
0.916667 0.0416664 0
0.0833331 0.291665 0
0.0833331 0.249998 0
0.125 0.291664 0
0.125 0.249998 0
0.125 0.291664 0
0.125 0.249998 0
0.166666 0.291663 0
0.166666 0.249997 0
0.125 0.33333 0
0.125 0.291664 0
0.166666 0.33333 0
0.166666 0.291663 0
0.0833331 0.333331 0
0.0833331 0.291665 0
0.125 0.33333 0
0.125 0.291664 0
0.208333 0.374995 0
0.208333 0.416662 0
0.166666 0.374996 0
0.166666 0.416662 0
0.208333 0.333329 0
0.208333 0.374995 0
0.166666 0.33333 0
0.166666 0.374996 0
0.249999 0.333328 0
0.249999 0.374994 0
0.208333 0.333329 0
0.208333 0.374995 0
0.249999 0.374994 0
0.249999 0.416661 0
0.208333 0.374995 0
0.208333 0.416662 0
0.333333 0.791662 0
0.333333 0.83333 0
0.291666 0.791663 0
0.291666 0.83333 0
0.291666 0.791663 0
0.291666 0.83333 0
0.25 0.791663 0
0.25 0.83333 0
0.291666 0.749995 0
0.291666 0.791663 0
0.249999 0.749996 0
0.25 0.791663 0
0.333333 0.749995 0
0.333333 0.791662 0
0.291666 0.749995 0
0.291666 0.791663 0
0.083333 0.374998 0
0.125 0.374997 0
0.083333 0.416664 0
0.125 0.416663 0
0.0833331 0.333331 0
0.125 0.33333 0
0.083333 0.374998 0
0.125 0.374997 0
0.125 0.33333 0
0.166666 0.33333 0
0.125 0.374997 0
0.166666 0.374996 0
0.125 0.374997 0
0.166666 0.374996 0
0.125 0.416663 0
0.166666 0.416662 0
0.666666 0.458327 0
0.624999 0.458326 0
0.666666 0.41666 0
0.624999 0.41666 0
0.666666 0.499993 0
0.624999 0.499993 0
0.666666 0.458327 0
0.624999 0.458326 0
0.624999 0.499993 0
0.583332 0.499992 0
0.624999 0.458326 0
0.583332 0.458326 0
0.624999 0.458326 0
0.583332 0.458326 0
0.624999 0.41666 0
0.583332 0.416659 0
0.333332 0.499993 0
0.291666 0.499994 0
0.333332 0.458326 0
0.291666 0.458327 0
0.0416666 0.249999 0
0.0416666 0.208333 0
0.0833331 0.249998 0
0.0833331 0.208332 0
0 0.25 0
0 0.208333 0
0.0416666 0.249999 0
0.0416666 0.208333 0
0 0.208333 0
0 0.166667 0
0.0416666 0.208333 0
0.0416666 0.166666 0
0.0416666 0.208333 0
0.0416666 0.166666 0
0.0833331 0.208332 0
0.0833332 0.166666 0
0.291666 0.291661 0
0.249999 0.291662 0
0.291666 0.249995 0
0.249999 0.249996 0
0.624999 0.208329 0
0.583333 0.208328 0
0.624999 0.166663 0
0.583333 0.166663 0
0.666666 0.208329 0
0.624999 0.208329 0
0.666666 0.166663 0
0.624999 0.166663 0
0.708333 0.666661 0
0.749999 0.666662 0
0.708333 0.708328 0
0.749999 0.708329 0
0.708333 0.708328 0
0.749999 0.708329 0
0.708333 0.749996 0
0.749999 0.749996 0
0.666666 0.708328 0
0.708333 0.708328 0
0.666666 0.749995 0
0.708333 0.749996 0
0.666666 0.666661 0
0.708333 0.666661 0
[...]
POINT_DATA 19164
SCALARS solution_0 double 1
LOOKUP_TABLE default
-0.0239012 -0.0129455 -0.0393945 -0.022542 -0.0356517 -0.0239012 -0.0569022 -0.0393945 -0.0179339 -0.0115554 -0.0356517 -0.0239012 -0.0115554 -0.00596002 -0.0239012 -0.0129455 -0.0626427 -0.0660413 -0.0151703 -0.018661 -0.059894 -0.0626427 -0.0129891 -0.0151703 -0.107301 -0.110674 -0.059894 -0.0626427 -0.110674 -0.114042 -0.0626427 -0.0660413 0.0239088 0.0167358 0.0726276 0.0647925 0.0291052 0.0239088 0.0776992 0.0726276 -0.018661 -0.0235436 0.0291052 0.0239088 -0.0235436 -0.0298864 0.0239088 0.0167358 -0.0660413 -0.0704067 -0.018661 -0.0235436 -0.114042 -0.118043 -0.0660413 -0.0704067 -0.118043 -0.123227 -0.0704067 -0.0759877 -0.0704067 -0.0759877 -0.0235436 -0.0298864 -0.163503 -0.213675 -0.167755 -0.219052 -0.167755 -0.219052 -0.17318 -0.225237 -0.118043 -0.167755 -0.123227 -0.17318 -0.114042 -0.163503 -0.118043 -0.167755 -0.10207 -0.0730187 -0.0810213 -0.0569022 -0.132869 -0.10207 -0.107107 -0.0810213 -0.152253 -0.118419 -0.132869 -0.10207 -0.118419 -0.0858341 -0.10207 -0.0730187 -0.260654 -0.267608 -0.213675 -0.219052 -0.267608 -0.274181 -0.219052 -0.225237 -0.110674 -0.159539 -0.114042 -0.163503 -0.107301 -0.154827 -0.110674 -0.159539 -0.154827 -0.20079 -0.159539 -0.208018 -0.159539 -0.208018 -0.163503 -0.213675 -0.129876 -0.0828627 -0.0948998 -0.0569388 -0.162284 -0.108815 -0.129876 -0.0828627 -0.108815 -0.0646735 -0.0828627 -0.0458105 -0.0828627 -0.0458105 -0.0569388 -0.0281114 -0.0467367 -0.0356517 -0.0730187 -0.0569022 -0.0557235 -0.0467367 -0.0858341 -0.0730187 -0.0292369 -0.0241099 -0.0557235 -0.0467367 -0.0241099 -0.0179339 -0.0467367 -0.0356517 -0.108421 -0.0876903 -0.134695 -0.108522 -0.0629358 -0.0463823 -0.0876903 -0.065459 -0.0876903 -0.065459 -0.108522 -0.0809567 -0.203789 -0.250905 -0.216564 -0.255022 -0.153593 -0.203789 -0.170386 -0.216564 -0.139953 -0.190921 -0.153593 -0.203789 -0.190921 -0.242065 -0.203789 -0.250905 -0.0129891 -0.0151703 0.0334813 0.0323111 -0.0151703 -0.018661 0.0323111 0.0291052 0.0323111 0.0291052 0.0799739 0.0776992 0.0334813 0.0323111 0.0793569 0.0799739 0.127307 0.126769 0.173092 0.17516 0.12396 0.127307 0.166054 0.173092 0.0793569 0.0799739 0.12396 0.127307 0.0799739 0.0776992 0.127307 0.126769 -0.252341 -0.260654 -0.208018 -0.213675 -0.241292 -0.252341 -0.20079 -0.208018 -0.042851 -0.0535695 -0.065459 -0.0809567 -0.029087 -0.042851 -0.0463823 -0.065459 -0.241292 -0.20079 -0.226659 -0.190474 0.0263249 0.0611737 0.0225167 0.0520307 -0.0109313 0.0263249 -0.0100396 0.0225167 -0.0115224 0.0300945 -0.0109313 0.0263249 0.0300945 0.0695557 0.0263249 0.0611737 0.0541376 0.10238 0.0647925 0.114314 0.0404976 0.0865565 0.0541376 0.10238 0.0865565 0.13421 0.10238 0.151783 0.10238 0.151783 0.114314 0.164501 -0.00304402 -0.00142393 -0.0115554 -0.00596002 -0.00495753 -0.00304402 -0.0179339 -0.0115554 0 0 -0.00495753 -0.00304402 0 0 -0.00304402 -0.00142393 -0.0554187 0 -0.0493084 0 -0.106947 -0.0554187 -0.0970414 -0.0493084 -0.111296 -0.0579371 -0.106947 -0.0554187 -0.0579371 0 -0.0554187 0 -0.220518 -0.162284 -0.184163 -0.129876 -0.184163 -0.129876 -0.141751 -0.0948998 -0.162284 -0.188965 -0.108815 -0.131864 -0.188965 -0.207868 -0.131864 -0.149745 -0.131864 -0.149745 -0.082439 -0.0970414 -0.108815 -0.131864 -0.0646735 -0.082439 0 0 -0.00142393 -0.00107715 0 0 -0.00107715 0 -0.00107715 0 -0.00183336 0 -0.00142393 -0.00107715 -0.00596002 -0.00183336 -0.034001 -0.0569388 -0.0136505 -0.0281114 -0.0164684 -0.034001 -0.00381164 -0.0136505 -0.0346197 -0.0619276 -0.0164684 -0.034001 -0.0619276 -0.0948998 -0.034001 -0.0569388 -0.163092 -0.127994 -0.152253 -0.118419 -0.163921 -0.129624 -0.163092 -0.127994 -0.129624 -0.0957564 -0.127994 -0.0937777 -0.127994 -0.0937777 -0.118419 -0.0858341 -0.000427817 0.00200251 0 0 0 -0.000427817 0 0 0 0.000863682 0 -0.000427817 0.000863682 0.00186324 -0.000427817 0.00200251 -0.0330424 -0.0292369 -0.0615732 -0.0557235 -0.0615732 -0.0557235 -0.0937777 -0.0858341 -0.0633134 -0.0615732 -0.0957564 -0.0937777 -0.0339686 -0.0330424 -0.0633134 -0.0615732 -0.122949 -0.108522 -0.0914098 -0.0809567 -0.129624 -0.122949 -0.0957564 -0.0914098 -0.163921 -0.154056 -0.129624 -0.122949 -0.154056 -0.134695 -0.122949 -0.108522 0.164131 0.183699 0.137542 0.149708 0.137542 0.149708 0.10905 0.1133 0.11808 0.137542 0.0967591 0.10905 0.137855 0.164131 0.11808 0.137542 -0.0323568 -0.0605033 -0.0278398 -0.0535695 -0.0339686 -0.0633134 -0.0323568 -0.0605033 -0.0633134 -0.0957564 -0.0605033 -0.0914098 -0.0605033 -0.0914098 -0.0535695 -0.0809567 -0.190921 -0.180643 -0.242065 -0.232889 -0.139953 -0.130235 -0.190921 -0.180643 -0.130235 -0.123227 -0.180643 -0.17318 -0.180643 -0.17318 -0.232889 -0.225237 -0.0970796 -0.0884977 -0.138469 -0.125413 -0.00817074 -0.00684692 -0.0292369 -0.0241099 0 0 -0.00817074 -0.00684692 0 0 -0.00684692 -0.00495753 -0.00684692 -0.00495753 -0.0241099 -0.0179339 -0.197456 -0.163092 -0.186211 -0.152253 -0.247705 -0.264691 -0.188965 -0.207868 -0.220518 -0.247705 -0.162284 -0.188965 0.0235319 0.00256847 0.0667754 0.0427814 0.0667754 0.0427814 0.111867 0.0848153 0.0865565 0.0667754 0.13421 0.111867 0.0404976 0.0235319 0.0865565 0.0667754 0.203985 0.236292 0.186636 0.212934 0.186636 0.212934 0.164131 0.183699 0.154154 0.186636 0.137855 0.164131 0.166054 0.203985 0.154154 0.186636 -0.269727 -0.220026 -0.271738 -0.218194 -0.271738 -0.218194 -0.264691 -0.207868 -0.0646735 -0.0294304 -0.0458105 -0.0183693 -0.0294304 0 -0.0183693 0 -0.0183693 0 -0.00861096 0 -0.0458105 -0.0183693 -0.0281114 -0.00861096 -0.00381164 -0.0136505 0.00266335 -0.00138173 -0.0136505 -0.0281114 -0.00138173 -0.00861096 -0.00138173 -0.00861096 0 0 0.00266335 -0.00138173 0 0 -0.103303 -0.0924408 -0.05253 -0.0459015 -0.0924408 -0.0786975 -0.0459015 -0.0379065 -0.0459015 -0.0379065 0 0 -0.05253 -0.0459015 0 0 0.166054 0.173092 0.203985 0.215541 0.173092 0.17516 0.215541 0.221068 0.215541 0.221068 0.253069 0.263015 0.203985 0.215541 0.236292 0.253069 -0.00404168 -0.0186618 0.0404976 0.0235319 -0.0479893 -0.0610762 -0.00404168 -0.0186618 -0.0186618 -0.0373398 0.0235319 0.00256847 -0.163855 -0.132869 -0.13384 -0.107107 -0.193838 -0.163855 -0.159466 -0.13384 -0.21817 -0.186211 -0.193838 -0.163855 -0.186211 -0.152253 -0.163855 -0.132869 -0.0294304 -0.0402503 0 0 -0.0646735 -0.082439 -0.0294304 -0.0402503 -0.082439 -0.0970414 -0.0402503 -0.0493084 -0.0402503 -0.0493084 0 0 -0.103076 -0.0970796 -0.148231 -0.138469 -0.148231 -0.138469 -0.190474 -0.176393 -0.154827 -0.148231 -0.20079 -0.190474 -0.107301 -0.103076 -0.154827 -0.148231 -0.0831529 -0.0378656 -0.0759877 -0.0298864 -0.130235 -0.0831529 -0.123227 -0.0759877 -0.139953 -0.0926593 -0.130235 -0.0831529 -0.0926593 -0.0479893 -0.0831529 -0.0378656 0.00355175 0.00266335 0 0 0.00200251 0.00355175 0 0 0.00186324 0.00107511 0.00200251 0.00355175 0.00107511 -0.00381164 0.00355175 0.00266335 -0.165254 -0.111296 -0.161064 -0.106947 -0.161064 -0.106947 -0.149745 -0.0970414 -0.218194 -0.161064 -0.207868 -0.149745 -0.220026 -0.165254 -0.218194 -0.161064 -0.242885 -0.201097 -0.259733 -0.214006 -0.259733 -0.214006 -0.269727 -0.220026 -0.286055 -0.242065 -0.280654 -0.232889 -0.280654 -0.232889 -0.274181 -0.225237 -0.107301 -0.059894 -0.103076 -0.0573113 -0.059894 -0.0129891 -0.0573113 -0.0119023 -0.0573113 -0.0119023 -0.0542346 -0.0115224 -0.103076 -0.0573113 -0.0970796 -0.0542346 0.0334813 0.0793569 0.0326498 0.0758161 0.0326498 0.0758161 0.0300945 0.0695557 -0.0119023 0.0326498 -0.0115224 0.0300945 -0.0129891 0.0334813 -0.0119023 0.0326498 -0.0926593 -0.105489 -0.0479893 -0.0610762 -0.139953 -0.153593 -0.0926593 -0.105489 -0.153593 -0.170386 -0.105489 -0.123499 0.12396 0.166054 0.116722 0.154154 0.116722 0.154154 0.105887 0.137855 0.0758161 0.116722 0.0695557 0.105887 0.0793569 0.12396 0.0758161 0.116722 -0.0479893 -0.00404168 -0.0378656 0.00750026 -0.00404168 0.0404976 0.00750026 0.0541376 0.00750026 0.0541376 0.0167358 0.0647925 -0.0378656 0.00750026 -0.0298864 0.0167358 0.000387222 -0.000373513 0.000863682 0.00186324 0 0.000387222 0 0.000863682 0 -0.000368962 0 0.000387222 -0.000368962 -0.00438828 0.000387222 -0.000373513 0.0776992 0.0726276 0.126769 0.122429 0.0726276 0.0647925 0.122429 0.114314 0.122429 0.114314 0.172289 0.164501 0.126769 0.122429 0.17516 0.172289 0.105887 0.137855 0.092191 0.11808 0.092191 0.11808 0.0772612 0.0967591 0.0611737 0.092191 0.0520307 0.0772612 0.0695557 0.105887 0.0611737 0.092191 -0.0970796 -0.0542346 -0.0884977 -0.0497244 -0.0542346 -0.0115224 -0.0497244 -0.0109313 -0.00543516 -0.0164684 0.00107511 -0.00381164 -0.000373513 -0.00543516 0.00186324 0.00107511 -0.00438828 -0.0152734 -0.000373513 -0.00543516 -0.0152734 -0.0346197 -0.00543516 -0.0164684 -0.220423 -0.193838 -0.182458 -0.159466 -0.242885 -0.220423 -0.201097 -0.182458 -0.103303 -0.05253 -0.109923 -0.0568168 -0.05253 0 -0.0568168 0 -0.0568168 0 -0.0579371 0 -0.109923 -0.0568168 -0.111296 -0.0579371 0.220544 0.214034 0.26616 0.262696 0.221068 0.220544 0.263015 0.26616 0.17516 0.172289 0.221068 0.220544 0.172289 0.164501 0.220544 0.214034 -0.0345393 -0.022542 -0.014294 -0.00847767 -0.014294 -0.00847767 0 0 -0.0214266 -0.014294 0 0 -0.0484772 -0.0345393 -0.0214266 -0.014294 -0.0786975 -0.0635759 -0.0379065 -0.0294874 -0.0635759 -0.0484772 -0.0294874 -0.0214266 -0.0294874 -0.0214266 0 0 -0.0379065 -0.0294874 0 0 0.201651 0.25291 0.214034 0.262696 0.151783 0.201651 0.164501 0.214034 0.13421 0.183543 0.151783 0.201651 0.183543 0.237164 0.201651 0.25291 -0.159466 -0.13384 -0.120091 -0.0993161 -0.13384 -0.107107 -0.0993161 -0.0780105 -0.0993161 -0.0780105 -0.0635759 -0.0484772 -0.120091 -0.0993161 -0.0786975 -0.0635759 -0.182458 -0.159466 -0.138595 -0.120091 -0.138595 -0.120091 -0.0924408 -0.0786975 -0.153175 -0.138595 -0.103303 -0.0924408 -0.201097 -0.182458 -0.153175 -0.138595 -0.214006 -0.162415 -0.220026 -0.165254 -0.201097 -0.153175 -0.214006 -0.162415 -0.153175 -0.103303 -0.162415 -0.109923 -0.162415 -0.109923 -0.165254 -0.111296 -0.00596002 -0.00183336 -0.0129455 -0.00425644 -0.00183336 0 -0.00425644 0 -0.00425644 0 -0.00847767 0 -0.0129455 -0.00425644 -0.022542 -0.00847767 0.183543 0.160151 0.237164 0.215341 0.13421 0.111867 0.183543 0.160151 0.111867 0.0848153 0.160151 0.131637 -0.0576553 -0.0393945 -0.0345393 -0.022542 -0.0780105 -0.0576553 -0.0484772 -0.0345393 -0.107107 -0.0810213 -0.0780105 -0.0576553 -0.0810213 -0.0569022 -0.0576553 -0.0393945 0.155336 0.132835 0.152845 0.13272 0.132835 0.109708 0.13272 0.111895 0.152845 0.13272 0.149708 0.131504 0.13272 0.111895 0.131504 0.1133 0.197329 0.176901 0.190542 0.172343 0.176901 0.155336 0.172343 0.152845 0.190542 0.172343 0.183699 0.166704 0.172343 0.152845 0.166704 0.149708 0.0630902 0.0406412 0.0700648 0.0500435 0.0406412 0.019677 0.0500435 0.0314133 0.0700648 0.0500435 0.0754784 0.0576222 0.0500435 0.0314133 0.0576222 0.0409475 0.109708 0.086281 0.111895 0.0908381 0.086281 0.0630902 0.0908381 0.0700648 0.111895 0.0908381 0.1133 0.0940595 0.0908381 0.0700648 0.0940595 0.0754784 0 0 -0.00544588 -0.00273465 0 0 -0.00273465 -0.00117284 -0.00544588 -0.00273465 -0.0168006 -0.00863031 -0.00273465 -0.00117284 -0.00863031 -0.00335493 -0.0168006 -0.00863031 -0.0256566 -0.0129442 -0.00863031 -0.00335493 -0.0129442 -0.00413545 -0.0256566 -0.0129442 -0.028357 -0.013062 -0.0129442 -0.00413545 -0.013062 -0.00187621 0.234027 0.216391 0.223279 0.207771 0.216391 0.197329 0.207771 0.190542 0.223279 0.207771 0.212934 0.198317 0.207771 0.190542 0.198317 0.183699 0.264411 0.250023 0.249879 0.237565 0.250023 0.234027 0.237565 0.223279 0.249879 0.237565 0.236292 0.224613 0.237565 0.223279 0.224613 0.212934 0.0154196 0.0356208 0.0352416 0.0561182 0.0356208 0.0578906 0.0561182 0.0791005 0.0352416 0.0561182 0.053355 0.0747869 0.0561182 0.0791005 0.0747869 0.0981549 0.0578906 0.0836307 0.0791005 0.105351 0.0836307 0.114323 0.105351 0.13648 0.0791005 0.105351 0.0981549 0.124674 0.105351 0.13648 0.124674 0.155824 0.0981549 0.124674 0.115585 0.142223 0.124674 0.155824 0.142223 0.173124 0.115585 0.142223 0.131637 0.158362 0.142223 0.173124 0.158362 0.188763 0.053355 0.0747869 0.0698193 0.0919227 0.0747869 0.0981549 0.0919227 0.115585 0.0698193 0.0919227 0.0848153 0.108226 0.0919227 0.115585 0.108226 0.131637 -0.028357 -0.013062 -0.0241853 -0.00818035 -0.013062 -0.00187621 -0.00818035 0.0040446 -0.0241853 -0.00818035 -0.0139376 0.00140731 -0.00818035 0.0040446 0.00140731 0.0135148 -0.0139376 0.00140731 0.00111164 0.0149116 0.00140731 0.0135148 0.0149116 0.026031 0.00111164 0.0149116 0.019677 0.0314133 0.0149116 0.026031 0.0314133 0.0409475 -0.31064 -0.305689 -0.301374 -0.299684 -0.305689 -0.297537 -0.299684 -0.295298 -0.301374 -0.299684 -0.286055 -0.286817 -0.299684 -0.295298 -0.286817 -0.285964 -0.297537 -0.28544 -0.295298 -0.287371 -0.28544 -0.268797 -0.287371 -0.274972 -0.295298 -0.287371 -0.285964 -0.282241 -0.287371 -0.274972 -0.282241 -0.274389 -0.285964 -0.282241 -0.27043 -0.270773 -0.282241 -0.274389 -0.270773 -0.267286 -0.27043 -0.270773 -0.250905 -0.252964 -0.270773 -0.267286 -0.252964 -0.255022 -0.112701 -0.100426 -0.105024 -0.0893548 -0.100426 -0.0878836 -0.0893548 -0.0737043 -0.105024 -0.0893548 -0.0917629 -0.0741091 -0.0893548 -0.0737043 -0.0741091 -0.0565645 0.241227 0.256858 0.193735 0.210372 0.256858 0.270138 0.210372 0.225006 0.193735 0.210372 0.155824 0.173124 0.210372 0.225006 0.173124 0.188763 0.200073 0.222729 0.152121 0.174632 0.222729 0.241227 0.174632 0.193735 0.152121 0.174632 0.114323 0.13648 0.174632 0.193735 0.13648 0.155824 0.0139602 0.033269 0.0290582 0.0490971 0.033269 0.053355 0.0490971 0.0698193 0.0290582 0.0490971 0.0427814 0.0637984 0.0490971 0.0698193 0.0637984 0.0848153 -0.0238169 -0.00496321 -0.00987129 0.00958481 -0.00496321 0.0139602 0.00958481 0.0290582 -0.00987129 0.00958481 0.00256847 0.022675 0.00958481 0.0290582 0.022675 0.0427814 -0.0565645 -0.0390684 -0.0395113 -0.0211961 -0.0390684 -0.0214518 -0.0211961 -0.00285098 -0.0395113 -0.0211961 -0.0238169 -0.00496321 -0.0211961 -0.00285098 -0.00496321 0.0139602 -0.0214518 -0.00343885 -0.00285098 0.0158477 -0.00343885 0.0154196 0.0158477 0.0352416 -0.00285098 0.0158477 0.0139602 0.033269 0.0158477 0.0352416 0.033269 0.053355 -0.0606741 -0.0458659 -0.0413744 -0.0244483 -0.0458659 -0.0298526 -0.0244483 -0.00659943 -0.0413744 -0.0244483 -0.0214518 -0.00343885 -0.0244483 -0.00659943 -0.00343885 0.0154196 -0.0878836 -0.0746181 -0.0737043 -0.0577146 -0.0746181 -0.0606741 -0.0577146 -0.0413744 -0.0737043 -0.0577146 -0.0565645 -0.0390684 -0.0577146 -0.0413744 -0.0390684 -0.0214518 -0.242843 -0.245526 -0.261457 -0.259273 -0.245526 -0.242481 -0.259273 -0.251284 -0.261457 -0.259273 -0.274389 -0.267286 -0.259273 -0.251284 -0.267286 -0.255022 -0.220973 -0.234311 -0.24726 -0.25744 -0.234311 -0.242843 -0.25744 -0.261457 -0.24726 -0.25744 -0.268797 -0.274972 -0.25744 -0.261457 -0.274972 -0.274389 -0.157835 -0.173739 -0.190711 -0.206052 -0.173739 -0.187249 -0.206052 -0.21766 -0.190711 -0.206052 -0.220973 -0.234311 -0.206052 -0.21766 -0.234311 -0.242843 0 0 -0.00603435 -0.00709231 0 0 -0.00709231 -0.00772936 -0.00603435 -0.00709231 -0.0259289 -0.0281721 -0.00709231 -0.00772936 -0.0281721 -0.0301952 0 0 -0.00772936 -0.00841354 0 0 -0.00841354 -0.00863383 -0.00772936 -0.00841354 -0.0301952 -0.032005 -0.00841354 -0.00863383 -0.032005 -0.0337044 0.00210083 0.0030886 0.00320381 0.00541399 0.0030886 0.00316429 0.00541399 0.00697346 0.00320381 0.00541399 0.00414677 0.00745818 0.00541399 0.00697346 0.00745818 0.0104024 -0.186266 -0.179137 -0.20499 -0.200711 -0.179137 -0.170386 -0.200711 -0.193475 -0.20499 -0.200711 -0.221368 -0.220668 -0.200711 -0.193475 -0.220668 -0.216564 -0.221368 -0.220668 -0.234174 -0.237799 -0.220668 -0.216564 -0.237799 -0.235793 -0.234174 -0.237799 -0.242481 -0.251284 -0.237799 -0.235793 -0.251284 -0.255022 -0.0059388 -0.00712084 -0.0128264 -0.0151399 -0.00712084 -0.00813698 -0.0151399 -0.0170644 -0.0128264 -0.0151399 -0.0215639 -0.024942 -0.0151399 -0.0170644 -0.024942 -0.0278398 -0.00323902 -0.00462187 -0.00762843 -0.0103038 -0.00462187 -0.0059388 -0.0103038 -0.0128264 -0.00762843 -0.0103038 -0.0136915 -0.0177775 -0.0103038 -0.0128264 -0.0177775 -0.0215639 -0.187899 -0.17501 -0.19015 -0.172883 -0.17501 -0.160289 -0.172883 -0.154414 -0.19015 -0.172883 -0.186266 -0.16594 -0.172883 -0.154414 -0.16594 -0.144861 -0.160289 -0.144039 -0.154414 -0.135089 -0.144039 -0.1269 -0.135089 -0.115508 -0.154414 -0.135089 -0.144861 -0.123658 -0.135089 -0.115508 -0.123658 -0.102705 -0.0918939 -0.104791 -0.124191 -0.139194 -0.104791 -0.117299 -0.139194 -0.152996 -0.124191 -0.139194 -0.157835 -0.173739 -0.139194 -0.152996 -0.173739 -0.187249 -0.0388835 -0.0457496 -0.0629368 -0.0729357 -0.0457496 -0.0529844 -0.0729357 -0.0831708 -0.0629368 -0.0729357 -0.0918939 -0.104791 -0.0729357 -0.0831708 -0.104791 -0.117299 -0.0529844 -0.060403 -0.0831708 -0.0931325 -0.060403 -0.0677853 -0.0931325 -0.10245 -0.0831708 -0.0931325 -0.117299 -0.128886 -0.0931325 -0.10245 -0.128886 -0.139189 -0.1269 -0.109348 -0.115508 -0.0960262 -0.109348 -0.0917629 -0.0960262 -0.0768465 -0.115508 -0.0960262 -0.102705 -0.0822347 -0.0960262 -0.0768465 -0.0822347 -0.0622907 -0.0917629 -0.0741091 -0.0768465 -0.0580185 -0.0741091 -0.0565645 -0.0580185 -0.0395113 -0.0768465 -0.0580185 -0.0622907 -0.0428651 -0.0580185 -0.0395113 -0.0428651 -0.0238169 -0.0622907 -0.0428651 -0.0491665 -0.029259 -0.0428651 -0.0238169 -0.029259 -0.00987129 -0.0491665 -0.029259 -0.0373398 -0.0173857 -0.029259 -0.00987129 -0.0173857 0.00256847 -0.0259289 -0.0556782 -0.0240495 -0.0520201 -0.0556782 -0.0914374 -0.0520201 -0.0867628 -0.0240495 -0.0520201 -0.021606 -0.0477595 -0.0520201 -0.0867628 -0.0477595 -0.0812198 -0.021606 -0.0477595 -0.0191588 -0.0432087 -0.0477595 -0.0812198 -0.0432087 -0.0747862 -0.0191588 -0.0432087 -0.0166337 -0.0384595 -0.0432087 -0.0747862 -0.0384595 -0.0677853 -0.00323902 -0.00762843 -0.00183641 -0.00488041 -0.00762843 -0.0136915 -0.00488041 -0.00944901 -0.00183641 -0.00488041 -0.000454657 -0.00212961 -0.00488041 -0.00944901 -0.00212961 -0.00516657 -0.000454657 -0.00212961 0.000870003 0.000549404 -0.00212961 -0.00516657 0.000549404 -0.000918596 0.000870003 0.000549404 0.00210083 0.0030886 0.000549404 -0.000918596 0.0030886 0.00316429 -0.297537 -0.292299 -0.28544 -0.276437 -0.292299 -0.279903 -0.276437 -0.261025 -0.28544 -0.276437 -0.268797 -0.256258 -0.276437 -0.261025 -0.256258 -0.238351 -0.31064 -0.312447 -0.305689 -0.304138 -0.312447 -0.306412 -0.304138 -0.294952 -0.305689 -0.304138 -0.297537 -0.292299 -0.304138 -0.294952 -0.292299 -0.279903 0.264411 0.249879 0.277016 0.260828 0.249879 0.236292 0.260828 0.24468 0.277016 0.260828 0.28795 0.269707 0.260828 0.24468 0.269707 0.253069 0.28795 0.269707 0.297052 0.277157 0.269707 0.253069 0.277157 0.258042 0.297052 0.277157 0.304492 0.282541 0.277157 0.258042 0.282541 0.263015 -0.0122559 -0.0144022 -0.0289831 -0.0335566 -0.0144022 -0.0166337 -0.0335566 -0.0384595 -0.0289831 -0.0335566 -0.0529844 -0.060403 -0.0335566 -0.0384595 -0.060403 -0.0677853 -0.00846158 -0.0102536 -0.0206583 -0.0246569 -0.0102536 -0.0122559 -0.0246569 -0.0289831 -0.0206583 -0.0246569 -0.0388835 -0.0457496 -0.0246569 -0.0289831 -0.0457496 -0.0529844 0 0 -0.00184862 -0.00227954 0 0 -0.00227954 -0.00277544 -0.00184862 -0.00227954 -0.00846158 -0.0102536 -0.00227954 -0.00277544 -0.0102536 -0.0122559 0 0 -0.00277544 -0.00340367 0 0 -0.00340367 -0.00370508 -0.00277544 -0.00340367 -0.0122559 -0.0144022 -0.00340367 -0.00370508 -0.0144022 -0.0166337 0.160151 0.145894 0.187746 0.173496 0.145894 0.131637 0.173496 0.158362 0.187746 0.173496 0.215341 0.202769 0.173496 0.158362 0.202769 0.188763 0.305693 0.267941 0.299133 0.259498 0.267941 0.237164 0.259498 0.226252 0.299133 0.259498 0.291115 0.249365 0.259498 0.226252 0.249365 0.215341 0.291115 0.249365 0.281465 0.237935 0.249365 0.215341 0.237935 0.202769 0.281465 0.237935 0.270138 0.225006 0.237935 0.202769 0.225006 0.188763 0.305693 0.310757 0.267941 0.2752 0.310757 0.314464 0.2752 0.280804 0.267941 0.2752 0.237164 0.245037 0.2752 0.280804 0.245037 0.25291 0.314464 0.316646 0.280804 0.285178 0.3166