# vtk DataFile Version 3.0
#This file was generated by the deal.II library on 2020/11/19 at 14:48:26
ASCII
DATASET UNSTRUCTURED_GRID

POINTS 9108 double
0.125 0.124999 0
0.125 0.0833324 0
0.166666 0.124998 0
0.166667 0.0833322 0
0.125 0.166665 0
0.125 0.124999 0
0.166666 0.166664 0
0.166666 0.124998 0
0.0833332 0.166666 0
0.0833332 0.124999 0
0.125 0.166665 0
0.125 0.124999 0
0.0833332 0.124999 0
0.0833333 0.0833327 0
0.125 0.124999 0
0.125 0.0833324 0
0.458332 0.541659 0
0.499999 0.541659 0
0.458332 0.583326 0
0.499999 0.583326 0
0.416666 0.541659 0
0.458332 0.541659 0
0.416666 0.583326 0
0.458332 0.583326 0
0.416666 0.499992 0
0.458332 0.499992 0
0.416666 0.541659 0
0.458332 0.541659 0
0.458332 0.499992 0
0.499999 0.499992 0
0.458332 0.541659 0
0.499999 0.541659 0
0.541666 0.624993 0
0.583332 0.624993 0
0.541666 0.66666 0
0.583332 0.66666 0
0.499999 0.624993 0
0.541666 0.624993 0
0.499999 0.66666 0
0.541666 0.66666 0
0.499999 0.583326 0
0.541666 0.583326 0
0.499999 0.624993 0
0.541666 0.624993 0
0.541666 0.583326 0
0.583332 0.583326 0
0.541666 0.624993 0
0.583332 0.624993 0
0.499999 0.541659 0
0.541666 0.541659 0
0.499999 0.583326 0
0.541666 0.583326 0
0.499999 0.499992 0
0.541666 0.499992 0
0.499999 0.541659 0
0.541666 0.541659 0
0.541666 0.499992 0
0.583332 0.499992 0
0.541666 0.541659 0
0.583332 0.541659 0
0.541666 0.541659 0
0.583332 0.541659 0
0.541666 0.583326 0
0.583332 0.583326 0
0.499999 0.458326 0
0.499999 0.416659 0
0.541666 0.458326 0
0.541666 0.416659 0
0.541666 0.458326 0
0.541666 0.416659 0
0.583332 0.458326 0
0.583332 0.416659 0
0.541666 0.499992 0
0.541666 0.458326 0
0.583332 0.499992 0
0.583332 0.458326 0
0.499999 0.499992 0
0.499999 0.458326 0
0.541666 0.499992 0
0.541666 0.458326 0
0.208333 0.20833 0
0.166666 0.208331 0
0.208333 0.166664 0
0.166666 0.166664 0
0.25 0.20833 0
0.208333 0.20833 0
0.25 0.166664 0
0.208333 0.166664 0
0.249999 0.249996 0
0.208333 0.249996 0
0.25 0.20833 0
0.208333 0.20833 0
0.208333 0.249996 0
0.166666 0.249997 0
0.208333 0.20833 0
0.166666 0.208331 0
0.499999 0.374993 0
0.541666 0.374993 0
0.499999 0.416659 0
0.541666 0.416659 0
0.499999 0.333326 0
0.541666 0.333326 0
0.499999 0.374993 0
0.541666 0.374993 0
0.541666 0.333326 0
0.583332 0.333327 0
0.541666 0.374993 0
0.583332 0.374993 0
0.541666 0.374993 0
0.583332 0.374993 0
0.541666 0.416659 0
0.583332 0.416659 0
0.458332 0.499992 0
0.458332 0.458326 0
0.499999 0.499992 0
0.499999 0.458326 0
0.416666 0.499992 0
0.416666 0.458326 0
0.458332 0.499992 0
0.458332 0.458326 0
0.416666 0.458326 0
0.416666 0.416659 0
0.458332 0.458326 0
0.458332 0.416659 0
0.458332 0.458326 0
0.458332 0.416659 0
0.499999 0.458326 0
0.499999 0.416659 0
0.708333 0.166663 0
0.708333 0.124997 0
0.75 0.166664 0
0.75 0.124998 0
0.666666 0.166663 0
0.666666 0.124997 0
0.708333 0.166663 0
0.708333 0.124997 0
0.666666 0.124997 0
0.666666 0.0833314 0
0.708333 0.124997 0
0.708333 0.0833316 0
0.708333 0.124997 0
0.708333 0.0833316 0
0.75 0.124998 0
0.75 0.0833317 0
0.499999 0.29166 0
0.499999 0.249994 0
0.541666 0.29166 0
0.541666 0.249994 0
0.541666 0.29166 0
0.541666 0.249994 0
0.583333 0.29166 0
0.583333 0.249994 0
0.541666 0.333326 0
0.541666 0.29166 0
0.583332 0.333327 0
0.583333 0.29166 0
0.499999 0.333326 0
0.499999 0.29166 0
0.541666 0.333326 0
0.541666 0.29166 0
0.125 0.208331 0
0.125 0.166665 0
0.166666 0.208331 0
0.166666 0.166664 0
0.125 0.249998 0
0.125 0.208331 0
0.166666 0.249997 0
0.166666 0.208331 0
0.0833331 0.249998 0
0.0833331 0.208332 0
0.125 0.249998 0
0.125 0.208331 0
0.0833331 0.208332 0
0.0833332 0.166666 0
0.125 0.208331 0
0.125 0.166665 0
0.249999 0.458327 0
0.208333 0.458328 0
0.249999 0.416661 0
0.208333 0.416662 0
0.249999 0.499994 0
0.208333 0.499995 0
0.249999 0.458327 0
0.208333 0.458328 0
0.208333 0.499995 0
0.166666 0.499996 0
0.208333 0.458328 0
0.166666 0.458329 0
0.208333 0.458328 0
0.166666 0.458329 0
0.208333 0.416662 0
0.166666 0.416662 0
0.708333 0.458327 0
0.708333 0.41666 0
0.749999 0.458328 0
0.749999 0.416661 0
0.666666 0.499993 0
0.666666 0.458327 0
0.708332 0.499994 0
0.708333 0.458327 0
0.666666 0.458327 0
0.666666 0.41666 0
0.708333 0.458327 0
0.708333 0.41666 0
0.416666 0.583326 0
0.458332 0.583326 0
0.416666 0.624993 0
0.458332 0.624993 0
0.458332 0.583326 0
0.499999 0.583326 0
0.458332 0.624993 0
0.499999 0.624993 0
0.458332 0.624993 0
0.499999 0.624993 0
0.458332 0.66666 0
0.499999 0.66666 0
0.416666 0.624993 0
0.458332 0.624993 0
0.416666 0.66666 0
0.458332 0.66666 0
0.458333 0.708327 0
0.499999 0.708327 0
0.458333 0.749994 0
0.499999 0.749994 0
0.416666 0.708327 0
0.458333 0.708327 0
0.416666 0.749994 0
0.458333 0.749994 0
0.416666 0.66666 0
0.458332 0.66666 0
0.416666 0.708327 0
0.458333 0.708327 0
0.458332 0.66666 0
0.499999 0.66666 0
0.458333 0.708327 0
0.499999 0.708327 0
0.458332 0.333326 0
0.499999 0.333326 0
0.458332 0.374993 0
0.499999 0.374993 0
0.458332 0.374993 0
0.499999 0.374993 0
0.458332 0.416659 0
0.499999 0.416659 0
0.416666 0.374993 0
0.458332 0.374993 0
0.416666 0.416659 0
0.458332 0.416659 0
0.416666 0.333327 0
0.458332 0.333326 0
0.416666 0.374993 0
0.458332 0.374993 0
0.125 0.45833 0
0.125 0.416663 0
0.166666 0.458329 0
0.166666 0.416662 0
0.125 0.499997 0
0.125 0.45833 0
0.166666 0.499996 0
0.166666 0.458329 0
0.083333 0.499998 0
0.083333 0.458331 0
0.125 0.499997 0
0.125 0.45833 0
0.083333 0.458331 0
0.083333 0.416664 0
0.125 0.45833 0
0.125 0.416663 0
0.374999 0.374993 0
0.374999 0.416659 0
0.333332 0.374993 0
0.333332 0.41666 0
0.374999 0.333327 0
0.374999 0.374993 0
0.333333 0.333327 0
0.333332 0.374993 0
0.416666 0.333327 0
0.416666 0.374993 0
0.374999 0.333327 0
0.374999 0.374993 0
0.416666 0.374993 0
0.416666 0.416659 0
0.374999 0.374993 0
0.374999 0.416659 0
0.791666 0.333329 0
0.749999 0.333328 0
0.791666 0.291663 0
0.749999 0.291662 0
0.791666 0.291663 0
0.749999 0.291662 0
0.791666 0.249996 0
0.749999 0.249996 0
0.833333 0.291663 0
0.791666 0.291663 0
0.833333 0.249997 0
0.791666 0.249996 0
0.833333 0.33333 0
0.791666 0.333329 0
0.833333 0.291663 0
0.791666 0.291663 0
0.291666 0.624994 0
0.291666 0.666661 0
0.249999 0.624995 0
0.249999 0.666662 0
0.291666 0.583327 0
0.291666 0.624994 0
0.249999 0.583328 0
0.249999 0.624995 0
0.333332 0.583326 0
0.333332 0.624994 0
0.291666 0.583327 0
0.291666 0.624994 0
0.333332 0.624994 0
0.333333 0.666661 0
0.291666 0.624994 0
0.291666 0.666661 0
0.416666 0.333327 0
0.374999 0.333327 0
0.416666 0.29166 0
0.374999 0.291661 0
0.374999 0.333327 0
0.333333 0.333327 0
0.374999 0.291661 0
0.333333 0.291661 0
0.374999 0.291661 0
0.333333 0.291661 0
0.374999 0.249995 0
0.333333 0.249995 0
0.416666 0.29166 0
0.374999 0.291661 0
0.416666 0.249994 0
0.374999 0.249995 0
0.624999 0.66666 0
0.624999 0.708328 0
0.583332 0.66666 0
0.583333 0.708327 0
0.0416666 0.125 0
0.0416666 0.083333 0
0.0833332 0.124999 0
0.0833333 0.0833327 0
0.0416666 0.166666 0
0.0416666 0.125 0
0.0833332 0.166666 0
0.0833332 0.124999 0
0 0.166667 0
0 0.125 0
0.0416666 0.166666 0
0.0416666 0.125 0
0 0.125 0
0 0.0833333 0
0.0416666 0.125 0
0.0416666 0.083333 0
0.541667 0.0416655 0
0.541667 0 0
0.583333 0.0416656 0
0.583333 0 0
0.541666 0.0833311 0
0.541667 0.0416655 0
0.583333 0.0833311 0
0.583333 0.0416656 0
0.5 0.0833311 0
0.5 0.0416655 0
0.541666 0.0833311 0
0.541667 0.0416655 0
0.5 0.0416655 0
0.5 0 0
0.541667 0.0416655 0
0.541667 0 0
0.0416665 0.333332 0
0.0833331 0.333331 0
0.0416665 0.374999 0
0.083333 0.374998 0
0.0416665 0.374999 0
0.083333 0.374998 0
0.0416665 0.416666 0
0.083333 0.416664 0
0 0.375 0
0.0416665 0.374999 0
0 0.416667 0
0.0416665 0.416666 0
0 0.333333 0
0.0416665 0.333332 0
0 0.375 0
0.0416665 0.374999 0
0.666666 0.374994 0
0.708333 0.374994 0
0.666666 0.41666 0
0.708333 0.41666 0
0.666666 0.333327 0
0.708333 0.333328 0
0.666666 0.374994 0
0.708333 0.374994 0
0.708333 0.333328 0
0.749999 0.333328 0
0.708333 0.374994 0
0.749999 0.374995 0
0.708333 0.374994 0
0.749999 0.374995 0
0.708333 0.41666 0
0.749999 0.416661 0
0.666666 0.208329 0
0.666666 0.166663 0
0.708333 0.208329 0
0.708333 0.166663 0
0.708333 0.208329 0
0.708333 0.166663 0
0.75 0.20833 0
0.75 0.166664 0
0.708333 0.249995 0
0.708333 0.208329 0
0.749999 0.249996 0
0.75 0.20833 0
0.666666 0.249995 0
0.666666 0.208329 0
0.708333 0.249995 0
0.708333 0.208329 0
0.333333 0.333327 0
0.333332 0.374993 0
0.291666 0.333328 0
0.291666 0.374994 0
0.333332 0.374993 0
0.333332 0.41666 0
0.291666 0.374994 0
0.291666 0.41666 0
0.291666 0.374994 0
0.291666 0.41666 0
0.249999 0.374994 0
0.249999 0.416661 0
0.291666 0.333328 0
0.291666 0.374994 0
0.249999 0.333328 0
0.249999 0.374994 0
0.666666 0.166663 0
0.624999 0.166663 0
0.666666 0.124997 0
0.625 0.124997 0
0.624999 0.166663 0
0.583333 0.166663 0
0.625 0.124997 0
0.583333 0.124997 0
0.625 0.124997 0
0.583333 0.124997 0
0.625 0.0833312 0
0.583333 0.0833311 0
0.666666 0.124997 0
0.625 0.124997 0
0.666666 0.0833314 0
0.625 0.0833312 0
0 0.0833333 0
0 0.0416667 0
0.0416666 0.083333 0
0.0416666 0.0416665 0
0 0.0416667 0
0 0 0
0.0416666 0.0416665 0
0.0416667 0 0
0.0416666 0.0416665 0
0.0416667 0 0
0.0833333 0.0416664 0
0.0833333 0 0
0.0416666 0.083333 0
0.0416666 0.0416665 0
0.0833333 0.0833327 0
0.0833333 0.0416664 0
0.791666 0.124998 0
0.75 0.124998 0
0.791666 0.083332 0
0.75 0.0833317 0
0.833333 0.124998 0
0.791666 0.124998 0
0.833333 0.0833322 0
0.791666 0.083332 0
0.833333 0.166665 0
0.791666 0.166664 0
0.833333 0.124998 0
0.791666 0.124998 0
0.791666 0.166664 0
0.75 0.166664 0
0.791666 0.124998 0
0.75 0.124998 0
0.875 0.333331 0
0.833333 0.33333 0
0.875 0.291664 0
0.833333 0.291663 0
0.875 0.291664 0
0.833333 0.291663 0
0.875 0.249998 0
0.833333 0.249997 0
0.916666 0.291665 0
0.875 0.291664 0
0.916666 0.249998 0
0.875 0.249998 0
0.916666 0.333331 0
0.875 0.333331 0
0.916666 0.291665 0
0.875 0.291664 0
0.249999 0.291662 0
0.208333 0.291663 0
0.249999 0.249996 0
0.208333 0.249996 0
0.249999 0.333328 0
0.208333 0.333329 0
0.249999 0.291662 0
0.208333 0.291663 0
0.208333 0.333329 0
0.166666 0.33333 0
0.208333 0.291663 0
0.166666 0.291663 0
[...]
POINT_DATA 9108
SCALARS solution_0 double 1
LOOKUP_TABLE default
-0.0115823 -0.00707728 -0.0193945 -0.0125103 -0.0159347 -0.0115823 -0.0260232 -0.0193945 -0.0076594 -0.00538715 -0.0159347 -0.0115823 -0.00538715 -0.00296989 -0.0115823 -0.00707728 -0.165746 -0.1818 -0.142954 -0.157259 -0.149247 -0.165746 -0.128979 -0.142954 -0.162337 -0.179868 -0.149247 -0.165746 -0.179868 -0.196142 -0.165746 -0.1818 -0.135264 -0.148936 -0.0882885 -0.0994054 -0.122955 -0.135264 -0.0799318 -0.0882885 -0.157259 -0.171846 -0.122955 -0.135264 -0.171846 -0.186255 -0.135264 -0.148936 -0.1818 -0.197003 -0.157259 -0.171846 -0.196142 -0.210461 -0.1818 -0.197003 -0.210461 -0.221774 -0.197003 -0.210559 -0.197003 -0.210559 -0.171846 -0.186255 -0.200744 -0.196893 -0.213057 -0.206547 -0.213057 -0.206547 -0.221271 -0.211437 -0.210461 -0.213057 -0.221774 -0.221271 -0.196142 -0.200744 -0.210461 -0.213057 -0.0454896 -0.032146 -0.0371824 -0.0260232 -0.0592028 -0.0454896 -0.0487306 -0.0371824 -0.0686213 -0.0529153 -0.0592028 -0.0454896 -0.0529153 -0.0375862 -0.0454896 -0.032146 -0.186404 -0.193226 -0.196893 -0.206547 -0.171256 -0.175446 -0.186404 -0.193226 -0.175446 -0.17464 -0.193226 -0.194992 -0.193226 -0.194992 -0.206547 -0.211437 -0.179868 -0.185523 -0.196142 -0.200744 -0.162337 -0.168272 -0.179868 -0.185523 -0.168272 -0.167644 -0.185523 -0.18361 -0.185523 -0.18361 -0.200744 -0.196893 -0.0588448 -0.0436271 -0.0459868 -0.033429 -0.0706937 -0.0532261 -0.0588448 -0.0436271 -0.0532261 -0.0362492 -0.0436271 -0.0291602 -0.0436271 -0.0291602 -0.033429 -0.0217441 -0.15325 -0.13378 -0.155262 -0.134179 -0.155262 -0.134179 -0.152577 -0.130334 -0.175446 -0.155262 -0.17464 -0.152577 -0.171256 -0.15325 -0.175446 -0.155262 -0.0199279 -0.0159347 -0.032146 -0.0260232 -0.0234504 -0.0199279 -0.0375862 -0.032146 -0.0115175 -0.00971791 -0.0234504 -0.0199279 -0.00971791 -0.0076594 -0.0199279 -0.0159347 -0.0892488 -0.0687979 -0.0897414 -0.0691783 -0.0860529 -0.0664751 -0.0892488 -0.0687979 -0.0664751 -0.047413 -0.0687979 -0.0489875 -0.0687979 -0.0489875 -0.0691783 -0.0492635 -0.206211 -0.185121 -0.182909 -0.160447 -0.22912 -0.21928 -0.2205 -0.206211 -0.21928 -0.201852 -0.206211 -0.185121 -0.128979 -0.142954 -0.102066 -0.111998 -0.142954 -0.157259 -0.111998 -0.122955 -0.111998 -0.122955 -0.0738269 -0.0799318 -0.102066 -0.111998 -0.0693739 -0.0738269 -0.0292605 -0.0291346 0.0220372 0.0295023 -0.0315812 -0.0292605 0.0118595 0.0220372 -0.0693739 -0.0738269 -0.0315812 -0.0292605 -0.0738269 -0.0799318 -0.0292605 -0.0291346 -0.16284 -0.171256 -0.175519 -0.186404 -0.175519 -0.186404 -0.18361 -0.196893 -0.161473 -0.175519 -0.167644 -0.18361 -0.150989 -0.16284 -0.161473 -0.175519 -0.0306854 -0.0308598 -0.0489875 -0.0492635 -0.0296711 -0.0306854 -0.047413 -0.0489875 -0.0147023 -0.0151157 -0.0296711 -0.0306854 -0.0151157 -0.0152194 -0.0306854 -0.0308598 -0.145044 -0.149739 -0.126889 -0.130478 -0.136445 -0.145044 -0.119887 -0.126889 -0.150989 -0.161473 -0.136445 -0.145044 -0.161473 -0.167644 -0.145044 -0.149739 -0.0880433 -0.114365 -0.071086 -0.0938476 -0.071086 -0.0938476 -0.0565114 -0.0757323 -0.0485312 -0.071086 -0.0380236 -0.0565114 -0.0610497 -0.0880433 -0.0485312 -0.071086 -0.0735896 -0.0582667 -0.0629026 -0.0528108 -0.0870937 -0.0735896 -0.0723447 -0.0629026 -0.101309 -0.0833804 -0.0870937 -0.0735896 -0.0833804 -0.0623683 -0.0735896 -0.0582667 -0.150989 -0.136445 -0.137409 -0.124886 -0.136445 -0.119887 -0.124886 -0.110176 -0.124886 -0.110176 -0.111194 -0.0984003 -0.137409 -0.124886 -0.121756 -0.111194 -0.113818 -0.0504656 -0.0994054 -0.0389079 -0.0013515 -0.000647493 -0.00538715 -0.00296989 -0.0019961 -0.0013515 -0.0076594 -0.00538715 0 0 -0.0019961 -0.0013515 0 0 -0.0013515 -0.000647493 -0.0268023 0 -0.0251236 0 -0.0500312 -0.0268023 -0.0470956 -0.0251236 -0.0510497 -0.0273698 -0.0500312 -0.0268023 -0.0273698 0 -0.0268023 0 -0.00378883 -0.0141612 -0.00398958 -0.0149097 -0.00398958 -0.0149097 -0.00407068 -0.0152194 0 -0.00398958 0 -0.00407068 0 -0.00378883 0 -0.00398958 -0.179671 -0.161578 -0.201852 -0.185121 -0.155765 -0.13752 -0.179671 -0.161578 -0.13752 -0.114365 -0.161578 -0.136896 -0.161578 -0.136896 -0.185121 -0.160447 -0.0893897 -0.0706937 -0.0754529 -0.0588448 -0.0754529 -0.0588448 -0.0599129 -0.0459868 -0.0939867 -0.0754529 -0.0757323 -0.0599129 -0.109812 -0.0893897 -0.0939867 -0.0754529 -0.119887 -0.126889 -0.101935 -0.107576 -0.126889 -0.130478 -0.107576 -0.110334 -0.107576 -0.110334 -0.0876309 -0.0897414 -0.101935 -0.107576 -0.0831763 -0.0876309 -0.0706937 -0.0806217 -0.0532261 -0.0614415 -0.0806217 -0.0879494 -0.0614415 -0.0676594 -0.0614415 -0.0676594 -0.0423924 -0.0470956 -0.0532261 -0.0614415 -0.0362492 -0.0423924 0 0 -0.000647493 0.000231595 0 0 0.000231595 0 0.000231595 0 -0.000773338 0 -0.000647493 0.000231595 -0.00296989 -0.000773338 -0.0235064 -0.033429 -0.0146765 -0.0217441 -0.0147132 -0.0235064 -0.00859914 -0.0146765 -0.0215099 -0.033181 -0.0147132 -0.0235064 -0.033181 -0.0459868 -0.0235064 -0.033429 -0.0362735 -0.0610497 -0.0284262 -0.0485312 -0.0284262 -0.0485312 -0.0219665 -0.0380236 -0.0127949 -0.0284262 -0.00976315 -0.0219665 -0.0165347 -0.0362735 -0.0127949 -0.0284262 -0.0767205 -0.0592399 -0.0686213 -0.0529153 -0.0831763 -0.0642204 -0.0767205 -0.0592399 -0.0642204 -0.0457626 -0.0592399 -0.0421812 -0.0592399 -0.0421812 -0.0529153 -0.0375862 0.000398515 0.000181618 0 0 0 0.000398515 0 0 0 -0.000113771 0 0.000398515 -0.000113771 -0.00120554 0.000398515 0.000181618 -0.0565114 -0.0757323 -0.0440277 -0.0599129 -0.0440277 -0.0599129 -0.033181 -0.0459868 -0.0291579 -0.0440277 -0.0215099 -0.033181 -0.0380236 -0.0565114 -0.0291579 -0.0440277 -0.10737 -0.128476 -0.136896 -0.160447 -0.0880433 -0.10737 -0.114365 -0.136896 -0.0610497 -0.0757645 -0.0880433 -0.10737 -0.0757645 -0.0925847 -0.10737 -0.128476 -0.0130149 -0.0115175 -0.0264026 -0.0234504 -0.0264026 -0.0234504 -0.0421812 -0.0375862 -0.0286823 -0.0264026 -0.0457626 -0.0421812 -0.0141612 -0.0130149 -0.0286823 -0.0264026 -0.067607 -0.0691783 -0.0481664 -0.0492635 -0.0642204 -0.067607 -0.0457626 -0.0481664 -0.0831763 -0.0876309 -0.0642204 -0.067607 -0.0876309 -0.0897414 -0.067607 -0.0691783 -0.0236222 -0.000525671 -0.0329148 -0.0202977 -0.0121636 0.0212817 -0.0236222 -0.000525671 -0.0149097 -0.0301911 -0.0152194 -0.0308598 -0.0141612 -0.0286823 -0.0149097 -0.0301911 -0.0286823 -0.0457626 -0.0301911 -0.0481664 -0.0301911 -0.0481664 -0.0308598 -0.0492635 -0.0528108 -0.0428225 -0.0454156 -0.0410953 -0.0428225 -0.0329148 -0.0410953 -0.0384595 -0.0410953 -0.0384595 -0.0357254 -0.0385583 -0.0454156 -0.0410953 -0.03605 -0.0357254 -0.21928 -0.223967 -0.201852 -0.210261 -0.22912 -0.228483 -0.21928 -0.223967 -0.228483 -0.221774 -0.223967 -0.221271 -0.223967 -0.221271 -0.210261 -0.211437 -0.00347649 -0.00306559 -0.0130149 -0.0115175 -0.00378883 -0.00347649 -0.0141612 -0.0130149 0 0 -0.00378883 -0.00347649 0 0 -0.00347649 -0.00306559 -0.0384595 -0.0358727 -0.0385583 -0.0440155 -0.0329148 -0.0202977 -0.0384595 -0.0358727 -0.105664 -0.0860529 -0.109781 -0.0892488 -0.109781 -0.0892488 -0.110334 -0.0897414 -0.130009 -0.109781 -0.130478 -0.110334 -0.125028 -0.105664 -0.130009 -0.109781 -0.00306559 -0.00256898 -0.0115175 -0.00971791 0 0 -0.00306559 -0.00256898 0 0 -0.00256898 -0.0019961 -0.00256898 -0.0019961 -0.00971791 -0.0076594 -0.101935 -0.0831763 -0.0939126 -0.0767205 -0.0939126 -0.0767205 -0.0839995 -0.0686213 -0.110176 -0.0939126 -0.0984003 -0.0839995 -0.119887 -0.101935 -0.110176 -0.0939126 -0.100712 -0.108729 -0.0806217 -0.0879494 -0.0893897 -0.100712 -0.0706937 -0.0806217 -0.109812 -0.122137 -0.0893897 -0.100712 -0.122137 -0.130334 -0.100712 -0.108729 -0.0265784 -0.0414558 -0.0251422 -0.0382337 -0.0251422 -0.0382337 -0.0246932 -0.03605 7.33436e-05 0.0434229 -0.0121636 0.0212817 0.0118595 0.0645629 7.33436e-05 0.0434229 -0.134179 -0.113085 -0.130334 -0.108729 -0.13378 -0.113721 -0.134179 -0.113085 -0.113721 -0.0934198 -0.113085 -0.0922651 -0.113085 -0.0922651 -0.108729 -0.0879494 0 0 -0.00370648 -0.00398652 0 0 -0.00398652 -0.00407068 -0.00398652 -0.00407068 -0.0151157 -0.0152194 -0.00370648 -0.00398652 -0.0147023 -0.0151157 -0.0362492 -0.0188794 -0.0291602 -0.0148138 -0.0188794 0 -0.0148138 0 -0.0148138 0 -0.0106016 0 -0.0291602 -0.0148138 -0.0217441 -0.0106016 -0.00859914 -0.0146765 -0.00337318 -0.00665804 -0.0146765 -0.0217441 -0.00665804 -0.0106016 -0.00665804 -0.0106016 0 0 -0.00337318 -0.00665804 0 0 -0.04754 -0.0434191 -0.0253321 -0.0229862 -0.0434191 -0.0381211 -0.0229862 -0.0199964 -0.0229862 -0.0199964 0 0 -0.0253321 -0.0229862 0 0 -0.045755 -0.0570092 -0.0757645 -0.0925847 -0.0362735 -0.045755 -0.0610497 -0.0757645 -0.0165347 -0.0211624 -0.0362735 -0.045755 -0.0211624 -0.0268527 -0.045755 -0.0570092 0.0118595 0.0220372 0.0645629 0.0835624 0.0220372 0.0295023 0.0835624 0.0986823 -0.0726081 -0.0592028 -0.0600402 -0.0487306 -0.0850712 -0.0726081 -0.0705196 -0.0600402 -0.0984003 -0.0839995 -0.0850712 -0.0726081 -0.0839995 -0.0686213 -0.0726081 -0.0592028 -0.00829197 -0.0334201 -0.00678016 -0.0268527 0 -0.00829197 0 -0.00678016 -0.0188794 -0.022417 0 0 -0.0362492 -0.0423924 -0.0188794 -0.022417 -0.0423924 -0.0470956 -0.022417 -0.0251236 -0.022417 -0.0251236 0 0 -0.143974 -0.125028 -0.149619 -0.130009 -0.149619 -0.130009 -0.149739 -0.130478 -0.168272 -0.149619 -0.167644 -0.149739 -0.162337 -0.143974 -0.168272 -0.149619 -0.221347 -0.200077 -0.210559 -0.186255 -0.228483 -0.221347 -0.221774 -0.210559 -0.22912 -0.226852 -0.228483 -0.221347 -0.00104681 -0.00337318 0 0 0.000181618 -0.00104681 0 0 -0.00120554 -0.00401918 0.000181618 -0.00104681 -0.00401918 -0.00859914 -0.00104681 -0.00337318 -0.072728 -0.0510497 -0.0714802 -0.0500312 -0.0714802 -0.0500312 -0.0676594 -0.0470956 -0.0922651 -0.0714802 -0.0879494 -0.0676594 -0.0934198 -0.072728 -0.0922651 -0.0714802 -0.104749 -0.0867572 -0.110822 -0.0914954 -0.110822 -0.0914954 -0.113721 -0.0934198 -0.129475 -0.110822 -0.13378 -0.113721 -0.121756 -0.104749 -0.129475 -0.110822 -0.16819 -0.190738 -0.17464 -0.194992 -0.155765 -0.179671 -0.16819 -0.190738 -0.179671 -0.201852 -0.190738 -0.210261 -0.190738 -0.210261 -0.194992 -0.211437 -0.162337 -0.149247 -0.143974 -0.132456 -0.149247 -0.128979 -0.132456 -0.115181 -0.132456 -0.115181 -0.115385 -0.101309 -0.143974 -0.132456 -0.125028 -0.115385 -0.00724565 -0.0165725 -0.00505654 -0.0119196 -0.00976315 -0.0219665 -0.00724565 -0.0165725 -0.0219665 -0.0380236 -0.0165725 -0.0291579 -0.0165725 -0.0291579 -0.0119196 -0.0215099 -0.144854 -0.152577 -0.122137 -0.130334 -0.132081 -0.144854 -0.109812 -0.122137 -0.155765 -0.16819 -0.132081 -0.144854 -0.16819 -0.17464 -0.144854 -0.152577 -0.102066 -0.0693739 -0.0927019 -0.065815 -0.0927019 -0.065815 -0.0833804 -0.0623683 -0.115181 -0.0927019 -0.101309 -0.0833804 -0.128979 -0.102066 -0.115181 -0.0927019 -0.16284 -0.147086 -0.171256 -0.15325 -0.150989 -0.137409 -0.16284 -0.147086 -0.137409 -0.121756 -0.147086 -0.129475 -0.147086 -0.129475 -0.15325 -0.13378 -0.0629026 -0.0528108 -0.0511091 -0.0454156 -0.0511091 -0.0454156 -0.0382337 -0.03605 -0.0570378 -0.0511091 -0.0414558 -0.0382337 -0.0723447 -0.0629026 -0.0570378 -0.0511091 -0.0315812 0.0118595 -0.0350943 7.33436e-05 -0.0350943 7.33436e-05 -0.0388221 -0.0121636 -0.065815 -0.0350943 -0.0623683 -0.0388221 -0.0693739 -0.0315812 -0.065815 -0.0350943 -0.16401 -0.113818 -0.148936 -0.0994054 -0.200077 -0.16401 -0.186255 -0.148936 -0.132081 -0.109812 -0.114728 -0.0939867 -0.114728 -0.0939867 -0.0938476 -0.0757323 -0.13752 -0.114728 -0.114365 -0.0938476 -0.155765 -0.132081 -0.13752 -0.114728 -0.000617624 -0.00305462 -0.000113771 -0.00120554 0 -0.000617624 0 -0.000113771 0 -0.00113846 0 -0.000617624 -0.00113846 -0.00505654 -0.000617624 -0.00305462 -0.0799318 -0.0882885 -0.0291346 -0.0321512 -0.0882885 -0.0994054 -0.0321512 -0.0389079 -0.0321512 -0.0389079 0.0335174 0.0319056 -0.0291346 -0.0321512 0.0295023 0.0335174 -0.0388221 -0.0121636 -0.0417458 -0.0236222 -0.0417458 -0.0236222 -0.0428225 -0.0329148 -0.0582667 -0.0417458 -0.0528108 -0.0428225 -0.0623683 -0.0388221 -0.0582667 -0.0417458 -0.0624093 -0.0570378 -0.0448133 -0.0414558 -0.0664751 -0.0624093 -0.047413 -0.0448133 -0.0860529 -0.0802842 -0.0664751 -0.0624093 -0.0802842 -0.0723447 -0.0624093 -0.0570378 -0.125028 -0.115385 -0.105664 -0.0979935 -0.115385 -0.101309 -0.0979935 -0.0870937 -0.0979935 -0.0870937 -0.0802842 -0.0723447 -0.105664 -0.0979935 -0.0860529 -0.0802842 -0.00775367 -0.0147132 -0.00401918 -0.00859914 -0.00305462 -0.00775367 -0.00120554 -0.00401918 -0.00505654 -0.0119196 -0.00305462 -0.00775367 -0.0119196 -0.0215099 -0.00775367 -0.0147132 -0.111194 -0.0984003 -0.0959812 -0.0850712 -0.0959812 -0.0850712 -0.0796037 -0.0705196 -0.104749 -0.0959812 -0.0867572 -0.0796037 -0.121756 -0.111194 -0.104749 -0.0959812 -0.04754 -0.0253321 -0.050168 -0.0268457 -0.0253321 0 -0.0268457 0 -0.0268457 0 -0.0273698 0 -0.050168 -0.0268457 -0.0510497 -0.0273698 -0.00306029 -0.0127949 -0.00230932 -0.00976315 0 -0.00306029 0 -0.00230932 0 -0.00399651 0 -0.00306029 -0.00399651 -0.0165347 -0.00306029 -0.0127949 -0.00516685 -0.00678016 -0.0211624 -0.0268527 -0.00399651 -0.00516685 -0.0165347 -0.0211624 0 0 -0.00399651 -0.00516685 0 0 -0.00516685 -0.00678016 -0.0187802 -0.0125103 -0.00922727 -0.00579031 -0.00922727 -0.00579031 0 0 -0.012901 -0.00922727 0 0 -0.0254183 -0.0187802 -0.012901 -0.00922727 -0.0381211 -0.0319968 -0.0199964 -0.0165648 -0.0319968 -0.0254183 -0.0165648 -0.012901 -0.0165648 -0.012901 0 0 -0.0199964 -0.0165648 0 0 -0.0705196 -0.0600402 -0.0548855 -0.046479 -0.0600402 -0.0487306 -0.046479 -0.0374127 -0.046479 -0.0374127 -0.0319968 -0.0254183 -0.0548855 -0.046479 -0.0381211 -0.0319968 -0.0796037 -0.0705196 -0.0621441 -0.0548855 -0.0621441 -0.0548855 -0.0434191 -0.0381211 -0.0677965 -0.0621441 -0.04754 -0.0434191 -0.0867572 -0.0796037 -0.0677965 -0.0621441 -0.0142821 -0.0282478 -0.0132304 -0.0265784 -0.0147023 -0.0296711 -0.0142821 -0.0282478 -0.0296711 -0.047413 -0.0282478 -0.0448133 -0.0282478 -0.0448133 -0.0265784 -0.0414558 -0.0914954 -0.0714333 -0.0934198 -0.072728 -0.0867572 -0.0677965 -0.0914954 -0.0714333 -0.0677965 -0.04754 -0.0714333 -0.050168 -0.0714333 -0.050168 -0.072728 -0.0510497 -0.00296989 -0.000773338 -0.00707728 -0.0028715 -0.000773338 0 -0.0028715 0 -0.0028715 0 -0.00579031 0 -0.00707728 -0.0028715 -0.0125103 -0.00579031 -0.00230932 -0.00976315 -0.00168735 -0.00724565 -0.00168735 -0.00724565 -0.00113846 -0.00505654 0 -0.00168735 0 -0.00113846 0 -0.00230932 0 -0.00168735 -0.0282015 -0.0193945 -0.0187802 -0.0125103 -0.0374127 -0.0282015 -0.0254183 -0.0187802 -0.0487306 -0.0371824 -0.0374127 -0.0282015 -0.0371824 -0.0260232 -0.0282015 -0.0193945 0.679031 0.692303 0.836285 0.843666 0.692303 0.704058 0.843666 0.850071 0.836285 0.843666 1 1 0.843666 0.850071 1 1 0.704058 0.714669 0.850071 0.855737 0.714669 0.723732 0.855737 0.860738 0.850071 0.855737 1 1 0.855737 0.860738 1 1 -0.100938 -0.0729957 -0.0879869 -0.0544007 -0.0729957 -0.038654 -0.0544007 -0.0144529 -0.0879869 -0.0544007 -0.0723901 -0.0344552 -0.0544007 -0.0144529 -0.0344552 0.00956316 -0.038654 0.00287426 -0.0144529 0.0324555 0.00287426 0.052576 0.0324555 0.0870809 -0.0144529 0.0324555 0.00956316 0.0601399 0.0324555 0.0870809 0.0601399 0.117903 0.00956316 0.0601399 0.0320446 0.0849482 0.0601399 0.117903 0.0849482 0.144558 0.0320446 0.0849482 0.0521073 0.10631 0.0849482 0.144558 0.10631 0.166828 -0.0723901 -0.0344552 -0.0558002 -0.0147327 -0.0344552 0.00956316 -0.0147327 0.0320446 -0.0558002 -0.0147327 -0.0395002 0.00364072 -0.0147327 0.0320446 0.00364072 0.0521073 -0.0989915 -0.10603 -0.123734 -0.131207 -0.10603 -0.112613 -0.131207 -0.137779 -0.123734 -0.131207 -0.147101 -0.154366 -0.131207 -0.137779 -0.154366 -0.160211 -0.0843698 -0.0917181 -0.107263 -0.115667 -0.0917181 -0.0989915 -0.115667 -0.123734 -0.107263 -0.115667 -0.129825 -0.138804 -0.115667 -0.123734 -0.138804 -0.147101 -0.0418546 -0.046162 -0.0622336 -0.0681158 -0.046162 -0.0506429 -0.0681158 -0.0741402 -0.0622336 -0.0681158 -0.0843698 -0.0917181 -0.0681158 -0.0741402 -0.0917181 -0.0989915 -0.0506429 -0.0552574 -0.0741402 -0.0801697 -0.0552574 -0.0599127 -0.0801697 -0.0860626 -0.0741402 -0.0801697 -0.0989915 -0.10603 -0.0801697 -0.0860626 -0.10603 -0.112613 -0.06446 -0.0552909 -0.0662498 -0.0612746 -0.0552909 -0.0454854 -0.0612746 -0.0532302 -0.0662498 -0.0612746 -0.0594023 -0.0605929 -0.0612746 -0.0532302 -0.0605929 -0.0557138 -0.0599127 -0.0645157 -0.0860626 -0.0916466 -0.0645157 -0.0689675 -0.0916466 -0.0967215 -0.0860626 -0.0916466 -0.112613 -0.118474 -0.0916466 -0.0967215 -0.118474 -0.123321 -0.112613 -0.118474 -0.137779 -0.143111 -0.118474 -0.123321 -0.143111 -0.146772 -0.137779 -0.143111 -0.160211 -0.164209 -0.143111 -0.146772 -0.164209 -0.165999 -0.0170239 -0.0186626 -0.0362005 -0.0393727 -0.0186626 -0.020389 -0.0393727 -0.0425781 -0.0362005 -0.0393727 -0.0599127 -0.0645157 -0.0393727 -0.0425781 -0.0645157 -0.0689675 0 0 -0.00430816 -0.00472602 0 0 -0.00472602 -0.00511488 -0.00430816 -0.00472602 -0.0170239 -0.0186626 -0.00472602 -0.00511488 -0.0186626 -0.020389 0.439654 0.46745 0.342857 0.371711 0.46745 0.488789 0.371711 0.394456 0.342857 0.371711 0.25825 0.286918 0.371711 0.394456 0.286918 0.309936 0.25825 0.286918 0.183682 0.211597 0.286918 0.309936 0.211597 0.234404 0.183682 0.211597 0.117903 0.144558 0.211597 0.234404 0.144558 0.166828 0.182107 0.223819 0.111708 0.150396 0.223819 0.25825 0.150396 0.183682 0.111708 0.150396 0.052576 0.0870809 0.150396 0.183682 0.0870809 0.117903 -0.131375 -0.104601 -0.121857 -0.0914433 -0.104601 -0.0723901 -0.0914433 -0.0558002 -0.121857 -0.0914433 -0.110727 -0.0775742 -0.0914433 -0.0558002 -0.0775742 -0.0395002 -0.169631 -0.152967 -0.16759 -0.147191 -0.152967 -0.131375 -0.147191 -0.121857 -0.16759 -0.147191 -0.162559 -0.139036 -0.147191 -0.121857 -0.139036 -0.110727 -0.160547 -0.152444 -0.167614 -0.15513 -0.152444 -0.14013 -0.15513 -0.137952 -0.167614 -0.15513 -0.169631 -0.152967 -0.15513 -0.137952 -0.152967 -0.131375 -0.14013 -0.12313 -0.137952 -0.115698 -0.12313 -0.100938 -0.115698 -0.0879869 -0.137952 -0.115698 -0.131375 -0.104601 -0.115698 -0.0879869 -0.104601 -0.0723901 0.0212817 0.0433401 0.010378 0.0294285 0.0433401 0.0717332 0.0294285 0.0547561 0.010378 0.0294285 -0.000525671 0.015732 0.0294285 0.0547561 0.015732 0.0377419 -0.000525671 0.015732 -0.0104117 0.00235069 0.015732 0.0377419 0.00235069 0.0209608 -0.0104117 0.00235069 -0.0202977 -0.0102292 0.00235069 0.0209608 -0.0102292 0.00463587 -0.0358727 -0.0321123 -0.0399441 -0.0406347 -0.0321123 -0.0250228 -0.0406347 -0.037281 -0.0399441 -0.0406347 -0.0440155 -0.0463573 -0.0406347 -0.037281 -0.0463573 -0.047004 -0.0202977 -0.0102292 -0.0280852 -0.0219636 -0.0102292 0.00463587 -0.0219636 -0.010802 -0.0280852 -0.0219636 -0.0358727 -0.0321123 -0.0219636 -0.010802 -0.0321123 -0.0250228 -0.0874497 -0.0990113 -0.051201 -0.0639499 -0.0990113 -0.110727 -0.0639499 -0.0775742 -0.051201 -0.0639499 -0.0107145 -0.0243113 -0.0639499 -0.0775742 -0.0243113 -0.0395002 0 0 -0.00269921 -0.003062 0 0 -0.003062 -0.00346336 -0.00269921 -0.003062 -0.0110212 -0.0124468 -0.003062 -0.00346336 -0.0124468 -0.0139026 0 0 -0.00346336 -0.00387449 0 0 -0.00387449 -0.00430816 -0.00346336 -0.00387449 -0.0139026 -0.0154322 -0.00387449 -0.00430816 -0.0154322 -0.0170239 -0.0139026 -0.0154322 -0.0300629 -0.0330848 -0.0154322 -0.0170239 -0.0330848 -0.0362005 -0.0300629 -0.0330848 -0.0506429 -0.0552574 -0.0330848 -0.0362005 -0.0552574 -0.0599127 -0.0110212 -0.0124468 -0.024476 -0.0271599 -0.0124468 -0.0139026 -0.0271599 -0.0300629 -0.024476 -0.0271599 -0.0418546 -0.046162 -0.0271599 -0.0300629 -0.046162 -0.0506429 0.0645629 0.0968596 0.0539929 0.0840918 0.0968596 0.135676 0.0840918 0.120722 0.0539929 0.0840918 0.0434229 0.070816 0.0840918 0.120722 0.070816 0.104891 0.0434229 0.070816 0.0323523 0.0571948 0.070816 0.104891 0.0571948 0.0885022 0.0323523 0.0571948 0.0212817 0.0433401 0.0571948 0.0885022 0.0433401 0.0717332 -0.129825 -0.151107 -0.12047 -0.141354 -0.151107 -0.170361 -0.141354 -0.16066 -0.12047 -0.141354 -0.11101 -0.131207 -0.141354 -0.16066 -0.131207 -0.150263 -0.129825 -0.13