# vtk DataFile Version 3.0
#This file was generated by the deal.II library on 2020/11/19 at 14:57:31
ASCII
DATASET UNSTRUCTURED_GRID

POINTS 39648 double
0.458332 0.541659 0
0.499999 0.541659 0
0.458332 0.583326 0
0.499999 0.583326 0
0.416666 0.541659 0
0.458332 0.541659 0
0.416666 0.583326 0
0.458332 0.583326 0
0.416666 0.499992 0
0.458332 0.499992 0
0.416666 0.541659 0
0.458332 0.541659 0
0.458332 0.499992 0
0.499999 0.499992 0
0.458332 0.541659 0
0.499999 0.541659 0
0.541666 0.624993 0
0.583332 0.624993 0
0.541666 0.66666 0
0.583332 0.66666 0
0.499999 0.624993 0
0.541666 0.624993 0
0.499999 0.66666 0
0.541666 0.66666 0
0.499999 0.583326 0
0.541666 0.583326 0
0.499999 0.624993 0
0.541666 0.624993 0
0.541666 0.583326 0
0.583332 0.583326 0
0.541666 0.624993 0
0.583332 0.624993 0
0.499999 0.541659 0
0.541666 0.541659 0
0.499999 0.583326 0
0.541666 0.583326 0
0.499999 0.499992 0
0.541666 0.499992 0
0.499999 0.541659 0
0.541666 0.541659 0
0.541666 0.499992 0
0.583332 0.499992 0
0.541666 0.541659 0
0.583332 0.541659 0
0.541666 0.541659 0
0.583332 0.541659 0
0.541666 0.583326 0
0.583332 0.583326 0
0.499999 0.458326 0
0.499999 0.416659 0
0.541666 0.458326 0
0.541666 0.416659 0
0.541666 0.458326 0
0.541666 0.416659 0
0.583332 0.458326 0
0.583332 0.416659 0
0.541666 0.499992 0
0.541666 0.458326 0
0.583332 0.499992 0
0.583332 0.458326 0
0.499999 0.499992 0
0.499999 0.458326 0
0.541666 0.499992 0
0.541666 0.458326 0
0.499999 0.374993 0
0.541666 0.374993 0
0.499999 0.416659 0
0.541666 0.416659 0
0.499999 0.333326 0
0.541666 0.333326 0
0.499999 0.374993 0
0.541666 0.374993 0
0.541666 0.333326 0
0.583332 0.333327 0
0.541666 0.374993 0
0.583332 0.374993 0
0.541666 0.374993 0
0.583332 0.374993 0
0.541666 0.416659 0
0.583332 0.416659 0
0.458332 0.499992 0
0.458332 0.458326 0
0.499999 0.499992 0
0.499999 0.458326 0
0.416666 0.499992 0
0.416666 0.458326 0
0.458332 0.499992 0
0.458332 0.458326 0
0.416666 0.458326 0
0.416666 0.416659 0
0.458332 0.458326 0
0.458332 0.416659 0
0.458332 0.458326 0
0.458332 0.416659 0
0.499999 0.458326 0
0.499999 0.416659 0
0.499999 0.29166 0
0.499999 0.249994 0
0.541666 0.29166 0
0.541666 0.249994 0
0.541666 0.333326 0
0.541666 0.29166 0
0.583332 0.333327 0
0.583333 0.29166 0
0.499999 0.333326 0
0.499999 0.29166 0
0.541666 0.333326 0
0.541666 0.29166 0
0.249999 0.499994 0
0.208333 0.499995 0
0.249999 0.458327 0
0.208333 0.458328 0
0.708333 0.458327 0
0.708333 0.41666 0
0.749999 0.458328 0
0.749999 0.416661 0
0.708332 0.499994 0
0.708333 0.458327 0
0.749999 0.499994 0
0.749999 0.458328 0
0.666666 0.499993 0
0.666666 0.458327 0
0.708332 0.499994 0
0.708333 0.458327 0
0.666666 0.458327 0
0.666666 0.41666 0
0.708333 0.458327 0
0.708333 0.41666 0
0.416666 0.583326 0
0.458332 0.583326 0
0.416666 0.624993 0
0.458332 0.624993 0
0.458332 0.583326 0
0.499999 0.583326 0
0.458332 0.624993 0
0.499999 0.624993 0
0.458332 0.624993 0
0.499999 0.624993 0
0.458332 0.66666 0
0.499999 0.66666 0
0.416666 0.624993 0
0.458332 0.624993 0
0.416666 0.66666 0
0.458332 0.66666 0
0.458333 0.708327 0
0.499999 0.708327 0
0.458333 0.749994 0
0.499999 0.749994 0
0.416666 0.708327 0
0.458333 0.708327 0
0.416666 0.749994 0
0.458333 0.749994 0
0.416666 0.66666 0
0.458332 0.66666 0
0.416666 0.708327 0
0.458333 0.708327 0
0.458332 0.66666 0
0.499999 0.66666 0
0.458333 0.708327 0
0.499999 0.708327 0
0.458332 0.333326 0
0.499999 0.333326 0
0.458332 0.374993 0
0.499999 0.374993 0
0.458332 0.374993 0
0.499999 0.374993 0
0.458332 0.416659 0
0.499999 0.416659 0
0.416666 0.374993 0
0.458332 0.374993 0
0.416666 0.416659 0
0.458332 0.416659 0
0.416666 0.333327 0
0.458332 0.333326 0
0.416666 0.374993 0
0.458332 0.374993 0
0.374999 0.374993 0
0.374999 0.416659 0
0.333332 0.374993 0
0.333332 0.41666 0
0.374999 0.333327 0
0.374999 0.374993 0
0.333333 0.333327 0
0.333332 0.374993 0
0.416666 0.333327 0
0.416666 0.374993 0
0.374999 0.333327 0
0.374999 0.374993 0
0.416666 0.374993 0
0.416666 0.416659 0
0.374999 0.374993 0
0.374999 0.416659 0
0.791666 0.791664 0
0.791666 0.833331 0
0.75 0.791663 0
0.75 0.83333 0
0.791666 0.749997 0
0.791666 0.791664 0
0.749999 0.749996 0
0.75 0.791663 0
0.291666 0.624994 0
0.291666 0.666661 0
0.249999 0.624995 0
0.249999 0.666662 0
0.291666 0.583327 0
0.291666 0.624994 0
0.249999 0.583328 0
0.249999 0.624995 0
0.333332 0.583326 0
0.333332 0.624994 0
0.291666 0.583327 0
0.291666 0.624994 0
0.333332 0.624994 0
0.333333 0.666661 0
0.291666 0.624994 0
0.291666 0.666661 0
0.416666 0.333327 0
0.374999 0.333327 0
0.416666 0.29166 0
0.374999 0.291661 0
0.374999 0.333327 0
0.333333 0.333327 0
0.374999 0.291661 0
0.333333 0.291661 0
0.416666 0.29166 0
0.374999 0.291661 0
0.416666 0.249994 0
0.374999 0.249995 0
0.624999 0.66666 0
0.624999 0.708328 0
0.583332 0.66666 0
0.583333 0.708327 0
0.666666 0.666661 0
0.666666 0.708328 0
0.624999 0.66666 0
0.624999 0.708328 0
0.666666 0.708328 0
0.666666 0.749995 0
0.624999 0.708328 0
0.624999 0.749995 0
0.624999 0.708328 0
0.624999 0.749995 0
0.583333 0.708327 0
0.583333 0.749995 0
0.666666 0.374994 0
0.708333 0.374994 0
0.666666 0.41666 0
0.708333 0.41666 0
0.666666 0.333327 0
0.708333 0.333328 0
0.666666 0.374994 0
0.708333 0.374994 0
0.708333 0.374994 0
0.749999 0.374995 0
0.708333 0.41666 0
0.749999 0.416661 0
0.333333 0.333327 0
0.333332 0.374993 0
0.291666 0.333328 0
0.291666 0.374994 0
0.333332 0.374993 0
0.333332 0.41666 0
0.291666 0.374994 0
0.291666 0.41666 0
0.291666 0.374994 0
0.291666 0.41666 0
0.249999 0.374994 0
0.249999 0.416661 0
0.291666 0.333328 0
0.291666 0.374994 0
0.249999 0.333328 0
0.249999 0.374994 0
0.791666 0.70833 0
0.791666 0.749997 0
0.749999 0.708329 0
0.749999 0.749996 0
0.791666 0.666663 0
0.791666 0.70833 0
0.749999 0.666662 0
0.749999 0.708329 0
0.333333 0.749995 0
0.333333 0.791662 0
0.291666 0.749995 0
0.291666 0.791663 0
0.666666 0.458327 0
0.624999 0.458326 0
0.666666 0.41666 0
0.624999 0.41666 0
0.666666 0.499993 0
0.624999 0.499993 0
0.666666 0.458327 0
0.624999 0.458326 0
0.624999 0.499993 0
0.583332 0.499992 0
0.624999 0.458326 0
0.583332 0.458326 0
0.624999 0.458326 0
0.583332 0.458326 0
0.624999 0.41666 0
0.583332 0.416659 0
0.291666 0.499994 0
0.249999 0.499994 0
0.291666 0.458327 0
0.249999 0.458327 0
0.291666 0.458327 0
0.249999 0.458327 0
0.291666 0.41666 0
0.249999 0.416661 0
0.333332 0.458326 0
0.291666 0.458327 0
0.333332 0.41666 0
0.291666 0.41666 0
0.333332 0.499993 0
0.291666 0.499994 0
0.333332 0.458326 0
0.291666 0.458327 0
0.333333 0.333327 0
0.291666 0.333328 0
0.333333 0.291661 0
0.291666 0.291661 0
0.708333 0.666661 0
0.749999 0.666662 0
0.708333 0.708328 0
0.749999 0.708329 0
0.708333 0.708328 0
0.749999 0.708329 0
0.708333 0.749996 0
0.749999 0.749996 0
0.666666 0.708328 0
0.708333 0.708328 0
0.666666 0.749995 0
0.708333 0.749996 0
0.666666 0.666661 0
0.708333 0.666661 0
0.666666 0.708328 0
0.708333 0.708328 0
0.416666 0.791662 0
0.416666 0.833329 0
0.374999 0.791662 0
0.374999 0.83333 0
0.374999 0.749995 0
0.374999 0.791662 0
0.333333 0.749995 0
0.333333 0.791662 0
0.416666 0.749994 0
0.416666 0.791662 0
0.374999 0.749995 0
0.374999 0.791662 0
0.791666 0.499995 0
0.749999 0.499994 0
0.791666 0.458328 0
0.749999 0.458328 0
0.791666 0.541662 0
0.791666 0.583329 0
0.749999 0.541661 0
0.749999 0.583328 0
0.791666 0.499995 0
0.791666 0.541662 0
0.749999 0.499994 0
0.749999 0.541661 0
0.416666 0.0833311 0
0.375 0.0833312 0
0.416667 0.0416656 0
0.375 0.0416656 0
0.416667 0.0416656 0
0.375 0.0416656 0
0.416667 0 0
0.375 0 0
0.416666 0.749994 0
0.458333 0.749994 0
0.416666 0.791662 0
0.458333 0.791662 0
0.458333 0.749994 0
0.499999 0.749994 0
0.458333 0.791662 0
0.499999 0.791662 0
0.458333 0.791662 0
0.499999 0.791662 0
0.458333 0.833329 0
0.499999 0.833329 0
0.416666 0.791662 0
0.458333 0.791662 0
0.416666 0.833329 0
0.458333 0.833329 0
0.666666 0.624994 0
0.708333 0.624994 0
0.666666 0.666661 0
0.708333 0.666661 0
0.666666 0.583327 0
0.708333 0.583327 0
0.666666 0.624994 0
0.708333 0.624994 0
0.708333 0.583327 0
0.749999 0.583328 0
0.708333 0.624994 0
0.749999 0.624995 0
0.708333 0.624994 0
0.749999 0.624995 0
0.708333 0.666661 0
0.749999 0.666662 0
0.791666 0.624996 0
0.791666 0.666663 0
0.749999 0.624995 0
0.749999 0.666662 0
0.791666 0.583329 0
0.791666 0.624996 0
0.749999 0.583328 0
0.749999 0.624995 0
0.374999 0.499993 0
0.333332 0.499993 0
0.374999 0.458326 0
0.333332 0.458326 0
0.374999 0.458326 0
0.333332 0.458326 0
0.374999 0.416659 0
0.333332 0.41666 0
0.416666 0.458326 0
0.374999 0.458326 0
0.416666 0.416659 0
0.374999 0.416659 0
0.416666 0.499992 0
0.374999 0.499993 0
0.416666 0.458326 0
0.374999 0.458326 0
0.624999 0.54166 0
0.624999 0.583326 0
0.583332 0.541659 0
0.583332 0.583326 0
0.624999 0.499993 0
0.624999 0.54166 0
0.583332 0.499992 0
0.583332 0.541659 0
0.666666 0.499993 0
0.666666 0.54166 0
0.624999 0.499993 0
0.624999 0.54166 0
0.666666 0.54166 0
0.666666 0.583327 0
0.624999 0.54166 0
0.624999 0.583326 0
0.624999 0.333327 0
0.624999 0.374993 0
0.583332 0.333327 0
0.583332 0.374993 0
0.666666 0.333327 0
0.666666 0.374994 0
0.624999 0.333327 0
0.624999 0.374993 0
0.666666 0.374994 0
0.666666 0.41666 0
0.624999 0.374993 0
0.624999 0.41666 0
0.624999 0.374993 0
0.624999 0.41666 0
0.583332 0.374993 0
0.583332 0.416659 0
0.416666 0.499992 0
0.416666 0.541659 0
0.374999 0.499993 0
0.374999 0.541659 0
0.416666 0.541659 0
0.416666 0.583326 0
0.374999 0.541659 0
0.374999 0.583326 0
0.374999 0.541659 0
0.374999 0.583326 0
0.333332 0.54166 0
0.333332 0.583326 0
0.374999 0.499993 0
0.374999 0.541659 0
0.333332 0.499993 0
0.333332 0.54166 0
0.666666 0.333327 0
0.624999 0.333327 0
0.666666 0.291661 0
0.624999 0.291661 0
0.624999 0.333327 0
0.583332 0.333327 0
0.624999 0.291661 0
0.583333 0.29166 0
0.416666 0.624993 0
0.416666 0.66666 0
0.374999 0.624993 0
0.374999 0.66666 0
0.374999 0.624993 0
0.374999 0.66666 0
0.333332 0.624994 0
0.333333 0.666661 0
0.374999 0.583326 0
0.374999 0.624993 0
0.333332 0.583326 0
0.333332 0.624994 0
0.416666 0.583326 0
0.416666 0.624993 0
0.374999 0.583326 0
0.374999 0.624993 0
[...]
POINT_DATA 39648
SCALARS solution_0 double 1
LOOKUP_TABLE default
-0.0193956 -0.0229193 0.0207377 0.0173831 -0.0164074 -0.0193956 0.0233276 0.0207377 -0.0557618 -0.0590304 -0.0164074 -0.0193956 -0.0590304 -0.0626379 -0.0193956 -0.0229193 0.0544275 0.0484965 0.0978888 0.0916973 0.0588118 0.0544275 0.10213 0.0978888 0.0173831 0.0129979 0.0588118 0.0544275 0.0129979 0.00741169 0.0544275 0.0484965 -0.0229193 -0.0272029 0.0173831 0.0129979 -0.0626379 -0.066763 -0.0229193 -0.0272029 -0.066763 -0.0715204 -0.0272029 -0.0323916 -0.0272029 -0.0323916 0.0129979 0.00741169 -0.102061 -0.141245 -0.105976 -0.144824 -0.105976 -0.144824 -0.110241 -0.148484 -0.066763 -0.105976 -0.0715204 -0.110241 -0.0626379 -0.102061 -0.066763 -0.105976 -0.180552 -0.18356 -0.141245 -0.144824 -0.22168 -0.224133 -0.180552 -0.18356 -0.224133 -0.227066 -0.18356 -0.186641 -0.18356 -0.186641 -0.144824 -0.148484 -0.0590304 -0.098446 -0.0626379 -0.102061 -0.0557618 -0.0950504 -0.0590304 -0.098446 -0.0950504 -0.134625 -0.098446 -0.137819 -0.098446 -0.137819 -0.102061 -0.141245 -0.26779 -0.318976 -0.269723 -0.321242 -0.224133 -0.269723 -0.227066 -0.27327 -0.22168 -0.26779 -0.224133 -0.269723 -0.0438702 -0.0394621 -0.0830873 -0.0770117 -0.123245 -0.159289 -0.127688 -0.164529 -0.0880992 -0.123245 -0.0933319 -0.127688 -0.0825637 -0.119162 -0.0880992 -0.123245 -0.119162 -0.155519 -0.123245 -0.159289 0.0233276 0.0207377 0.0639155 0.0618651 0.0207377 0.0173831 0.0618651 0.0588118 0.0618651 0.0588118 0.104713 0.10213 0.0639155 0.0618651 0.106033 0.104713 0.15016 0.148283 0.198774 0.198015 0.150385 0.15016 0.197155 0.198774 0.106033 0.104713 0.150385 0.15016 0.104713 0.10213 0.15016 0.148283 -0.219864 -0.22168 -0.177711 -0.180552 -0.177711 -0.180552 -0.137819 -0.141245 -0.175312 -0.177711 -0.134625 -0.137819 -0.218805 -0.219864 -0.175312 -0.177711 -0.173626 -0.131873 -0.172493 -0.129738 -0.218362 -0.173626 -0.217515 -0.172493 -0.218805 -0.175312 -0.218362 -0.173626 -0.175312 -0.134625 -0.173626 -0.131873 0.128335 0.169134 0.163897 0.209266 0.0916207 0.128335 0.121182 0.163897 0.0676915 0.105502 0.0675766 0.102393 0.0297371 0.0676915 0.0313473 0.0675766 0.0276248 0.0666897 0.0297371 0.0676915 0.0666897 0.106497 0.0676915 0.105502 -0.218805 -0.218362 -0.266461 -0.265834 -0.218362 -0.217515 -0.265834 -0.26262 -0.266461 -0.265834 -0.315262 -0.311399 0.083333 0.128829 0.0916973 0.137977 0.0726004 0.116546 0.083333 0.128829 0.116546 0.163981 0.128829 0.178076 0.128829 0.178076 0.137977 0.188095 -0.193535 -0.198791 -0.155519 -0.159289 -0.236315 -0.243882 -0.193535 -0.198791 -0.198791 -0.206856 -0.159289 -0.164529 -0.217515 -0.172493 -0.213781 -0.170367 -0.172493 -0.129738 -0.170367 -0.127637 -0.170367 -0.127637 -0.164516 -0.123397 -0.213781 -0.170367 -0.204269 -0.164516 0.0574261 0.0916207 0.0811077 0.121182 0.0250611 0.0574261 0.0435078 0.0811077 0.186704 0.223947 0.177084 0.207325 -0.119162 -0.114737 -0.155519 -0.152089 -0.0825637 -0.0768765 -0.119162 -0.114737 -0.0768765 -0.0715204 -0.114737 -0.110241 -0.114737 -0.110241 -0.152089 -0.148484 -0.0469799 -0.0438702 -0.0865693 -0.0830873 -0.0865693 -0.0830873 -0.127637 -0.123397 -0.0890927 -0.0865693 -0.129738 -0.127637 -0.0497577 -0.0469799 -0.0890927 -0.0865693 -0.217515 -0.213781 -0.26262 -0.254752 0.0593414 0.0435078 0.100745 0.0811077 0.100745 0.0811077 0.145196 0.121182 0.116546 0.100745 0.163981 0.145196 0.0726004 0.0593414 0.116546 0.100745 0.244731 0.29009 0.236195 0.275805 0.193263 0.236195 0.186704 0.223947 0.197155 0.244731 0.193263 0.236195 -0.0994651 -0.0933319 -0.134259 -0.127688 -0.0673909 -0.0366574 -0.0599569 -0.0264237 -0.0994651 -0.0673909 -0.0933319 -0.0599569 -0.210165 -0.185668 -0.107018 -0.0892402 -0.107018 -0.0892402 0 0 0.197155 0.198774 0.244731 0.249514 0.198774 0.198015 0.249514 0.250733 0.249514 0.250733 0.299336 0.303528 0.244731 0.249514 0.29009 0.299336 0.0315219 0.0204463 0.0726004 0.0593414 -0.00756193 -0.0166994 0.0315219 0.0204463 -0.0166994 -0.0264237 0.0204463 0.00787387 0.0204463 0.00787387 0.0593414 0.0435078 -0.00608172 0.0250611 0.00787387 0.0435078 -0.0366574 -0.00608172 -0.0264237 0.00787387 -0.0526853 -0.0497577 -0.0918908 -0.0890927 -0.0918908 -0.0890927 -0.131873 -0.129738 -0.0950504 -0.0918908 -0.134625 -0.131873 -0.0557618 -0.0526853 -0.0950504 -0.0918908 -0.0385154 0.00054599 -0.0323916 0.00741169 -0.0768765 -0.0385154 -0.0715204 -0.0323916 -0.0825637 -0.045429 -0.0768765 -0.0385154 -0.045429 -0.00756193 -0.0385154 0.00054599 -0.230924 -0.189812 -0.227066 -0.186641 -0.236315 -0.193535 -0.230924 -0.189812 -0.193535 -0.155519 -0.189812 -0.152089 -0.189812 -0.152089 -0.186641 -0.148484 -0.0557618 -0.0164074 -0.0526853 -0.0136911 -0.0164074 0.0233276 -0.0136911 0.0255125 -0.0136911 0.0255125 -0.0110307 0.0276248 -0.0526853 -0.0136911 -0.0497577 -0.0110307 -0.236315 -0.230924 -0.285635 -0.278457 -0.230924 -0.227066 -0.278457 -0.27327 0.0639155 0.106033 0.0653999 0.106538 0.0653999 0.106538 0.0666897 0.106497 0.0255125 0.0653999 0.0276248 0.0666897 0.0233276 0.0639155 0.0255125 0.0653999 -0.045429 -0.0527511 -0.00756193 -0.0166994 -0.0825637 -0.0880992 -0.045429 -0.0527511 -0.0880992 -0.0933319 -0.0527511 -0.0599569 -0.0527511 -0.0599569 -0.0166994 -0.0264237 -0.219864 -0.266764 -0.22168 -0.26779 -0.218805 -0.266461 -0.219864 -0.266764 -0.266461 -0.315262 -0.266764 -0.317235 -0.266764 -0.317235 -0.26779 -0.318976 0.0313473 0.0675766 0.0320388 0.0655544 0.150385 0.197155 0.149287 0.193263 0.149287 0.193263 0.146805 0.186704 0.106538 0.149287 0.106497 0.146805 0.106033 0.150385 0.106538 0.149287 -0.00756193 0.0315219 0.00054599 0.0408836 0.0315219 0.0726004 0.0408836 0.083333 0.0408836 0.083333 0.0484965 0.0916973 0.00054599 0.0408836 0.00741169 0.0484965 0.10213 0.0978888 0.148283 0.144345 0.0978888 0.0916973 0.144345 0.137977 0.144345 0.137977 0.194591 0.188095 0.148283 0.144345 0.198015 0.194591 0.146805 0.186704 0.142371 0.177084 0.105502 0.142371 0.102393 0.135264 0.106497 0.146805 0.105502 0.142371 0.342457 0.299336 0.350467 0.303528 -0.0438702 -0.00579149 -0.0394621 -0.00304004 -0.00579149 0.0313473 -0.00304004 0.0320388 -0.0497577 -0.0110307 -0.0469799 -0.00838502 -0.0110307 0.0276248 -0.00838502 0.0297371 -0.00838502 0.0297371 -0.00579149 0.0313473 -0.0469799 -0.00838502 -0.0438702 -0.00579149 -0.210165 -0.107018 -0.224474 -0.119755 -0.107018 0 -0.119755 0 0.248257 0.24179 0.302654 0.296489 0.250733 0.248257 0.303528 0.302654 0.198015 0.194591 0.250733 0.248257 0.194591 0.188095 0.248257 0.24179 0.230819 0.284671 0.24179 0.296489 0.178076 0.230819 0.188095 0.24179 0.163981 0.214623 0.178076 0.230819 0.214623 0.266599 0.230819 0.284671 0.192542 0.163897 0.241649 0.209266 0.214623 0.192542 0.266599 0.241649 0.163981 0.145196 0.214623 0.192542 0.145196 0.121182 0.192542 0.163897 0.335168 0.346802 0.284671 0.296489 0.350467 0.303528 0.351821 0.302654 0.351821 0.302654 0.346802 0.296489 0.273443 0.249128 0.275301 0.253758 0.249128 0.222483 0.253758 0.229993 0.275301 0.253758 0.272797 0.254097 0.253758 0.229993 0.254097 0.233321 0.222483 0.193669 0.229993 0.204145 0.193669 0.162958 0.204145 0.176451 0.229993 0.204145 0.233321 0.210584 0.204145 0.176451 0.210584 0.186068 0.162958 0.130767 0.176451 0.147281 0.130767 0.097704 0.147281 0.117167 0.176451 0.147281 0.186068 0.160072 0.147281 0.117167 0.160072 0.133027 0.097704 0.0646269 0.117167 0.0868629 0.0646269 0.0327049 0.0868629 0.0574047 0.117167 0.0868629 0.133027 0.105527 0.0868629 0.0574047 0.105527 0.0783946 0.346697 0.331926 0.338652 0.326166 0.331926 0.314834 0.326166 0.311489 0.338652 0.326166 0.326618 0.316161 0.326166 0.311489 0.316161 0.303776 0.314834 0.29535 0.311489 0.294549 0.29535 0.273443 0.294549 0.275301 0.311489 0.294549 0.303776 0.28935 0.294549 0.275301 0.28935 0.272797 0.0580651 0.0724967 0.0752819 0.0916609 0.0724967 0.0877594 0.0916609 0.108693 0.0752819 0.0916609 0.0916207 0.109978 0.0916609 0.108693 0.109978 0.128335 0.0877594 0.104401 0.108693 0.126861 0.104401 0.123128 0.126861 0.146765 0.108693 0.126861 0.128335 0.148734 0.126861 0.146765 0.148734 0.169134 -0.12836 -0.111847 -0.120094 -0.10268 -0.111847 -0.096263 -0.10268 -0.0863764 -0.120094 -0.10268 -0.111172 -0.0939886 -0.10268 -0.0863764 -0.0939886 -0.0778791 -0.0212366 0.0068233 0.00346021 0.0301639 0.0068233 0.0299878 0.0301639 0.052742 0.00346021 0.0301639 0.0327049 0.0574047 0.0301639 0.052742 0.0574047 0.0783946 -0.0483731 -0.020778 -0.0393051 -0.0107718 -0.020778 -0.00055242 -0.0107718 0.0117149 -0.0393051 -0.0107718 -0.0212366 0.0068233 -0.0107718 0.0117149 0.0068233 0.0299878 -0.0224761 -0.0421354 -0.021345 -0.0402292 -0.0421354 -0.0636796 -0.0402292 -0.0607631 -0.021345 -0.0402292 -0.0193502 -0.0370557 -0.0402292 -0.0607631 -0.0370557 -0.0563604 0.220134 0.240454 0.192453 0.213785 0.240454 0.259189 0.213785 0.232843 0.192453 0.213785 0.169134 0.1892 0.213785 0.232843 0.1892 0.209266 0.174517 0.198211 0.145651 0.169759 0.198211 0.220134 0.169759 0.192453 0.145651 0.169759 0.123128 0.146765 0.169759 0.192453 0.146765 0.169134 0.00461049 0.0176515 0.0150914 0.0297614 0.0176515 0.0308314 0.0297614 0.0444547 0.0150914 0.0297614 0.0250611 0.0412436 0.0297614 0.0444547 0.0412436 0.0574261 0.0308314 0.044249 0.0444547 0.0597475 0.044249 0.0580651 0.0597475 0.0752819 0.0444547 0.0597475 0.0574261 0.0745234 0.0597475 0.0752819 0.0745234 0.0916207 -0.267478 -0.245903 -0.264 -0.239466 -0.245903 -0.222334 -0.239466 -0.214565 -0.264 -0.239466 -0.257622 -0.231926 -0.239466 -0.214565 -0.231926 -0.206856 -0.230132 -0.211756 -0.22886 -0.206433 -0.211756 -0.191285 -0.206433 -0.183666 -0.22886 -0.206433 -0.222334 -0.198463 -0.206433 -0.183666 -0.198463 -0.175493 -0.321242 -0.347381 -0.323488 -0.349105 -0.347381 -0.367824 -0.349105 -0.369095 -0.323488 -0.349105 -0.325755 -0.351131 -0.349105 -0.369095 -0.351131 -0.370085 -0.149197 -0.141079 -0.169989 -0.161659 -0.141079 -0.134259 -0.161659 -0.154192 -0.169989 -0.161659 -0.191285 -0.183666 -0.161659 -0.154192 -0.183666 -0.175493 -0.0487091 -0.0349668 -0.0422828 -0.0277631 -0.0349668 -0.0215762 -0.0277631 -0.0135646 -0.0422828 -0.0277631 -0.0366574 -0.0213695 -0.0277631 -0.0135646 -0.0213695 -0.00608172 -0.0215762 -0.0084425 -0.0135646 0.000831068 -0.0084425 0.00461049 0.000831068 0.0150914 -0.0135646 0.000831068 -0.00608172 0.00948967 0.000831068 0.0150914 0.00948967 0.0250611 -0.285635 -0.313433 -0.291532 -0.317862 -0.313433 -0.337728 -0.317862 -0.339399 -0.291532 -0.317862 -0.297155 -0.32132 -0.317862 -0.339399 -0.32132 -0.338555 -0.243882 -0.270593 -0.250593 -0.277001 -0.270593 -0.297155 -0.277001 -0.3019 -0.250593 -0.277001 -0.257622 -0.282695 -0.277001 -0.3019 -0.282695 -0.304408 0.369585 0.357225 0.377903 0.363824 0.357225 0.342457 0.363824 0.346462 0.377903 0.363824 0.384399 0.368282 0.363824 0.346462 0.368282 0.350467 0.346697 0.338652 0.359212 0.349012 0.338652 0.326618 0.349012 0.335217 0.359212 0.349012 0.369585 0.357225 0.349012 0.335217 0.357225 0.342457 0 -0.000479272 0 -0.000344492 -0.000479272 -0.00392112 -0.000344492 -0.0026346 0 -0.000344492 0 -4.4031e-05 -0.000344492 -0.0026346 -4.4031e-05 -0.0014337 0.316549 0.291464 0.304789 0.279667 0.291464 0.266599 0.279667 0.254124 0.304789 0.279667 0.291368 0.265834 0.279667 0.254124 0.265834 0.241649 0.291368 0.265834 0.276102 0.250402 0.265834 0.241649 0.250402 0.225458 0.276102 0.250402 0.259189 0.232843 0.250402 0.225458 0.232843 0.209266 0.316549 0.326492 0.291464 0.301331 0.326492 0.335168 0.301331 0.30992 0.291464 0.301331 0.266599 0.275635 0.301331 0.30992 0.275635 0.284671 0.374946 0.381739 0.341965 0.351123 0.381739 0.386784 0.351123 0.358584 0.341965 0.351123 0.316549 0.326492 0.351123 0.358584 0.326492 0.335168 0.386784 0.390309 0.358584 0.364399 0.390309 0.392396 0.364399 0.368444 0.358584 0.364399 0.335168 0.340985 0.364399 0.368444 0.340985 0.346802 0.391785 0.371778 0.392866 0.371002 0.371778 0.351821 0.371002 0.349311 0.392866 0.371002 0.392396 0.368444 0.371002 0.349311 0.368444 0.346802 0.384399 0.368282 0.388953 0.370964 0.368282 0.350467 0.370964 0.351144 0.388953 0.370964 0.391785 0.371778 0.370964 0.351144 0.371778 0.351821 -0.318976 -0.344114 -0.320109 -0.345549 -0.344114 -0.364421 -0.345549 -0.366287 -0.320109 -0.345549 -0.321242 -0.347381 -0.345549 -0.366287 -0.347381 -0.367824 -0.111172 -0.10432 -0.129577 -0.121913 -0.10432 -0.0994651 -0.121913 -0.116862 -0.129577 -0.121913 -0.149197 -0.141079 -0.121913 -0.116862 -0.141079 -0.134259 -0.317235 -0.341051 -0.318106 -0.342571 -0.341051 -0.359512 -0.342571 -0.362241 -0.318106 -0.342571 -0.318976 -0.344114 -0.342571 -0.362241 -0.344114 -0.364421 -0.315262 -0.336497 -0.316249 -0.339079 -0.336497 -0.351797 -0.339079 -0.35603 -0.316249 -0.339079 -0.317235 -0.341051 -0.339079 -0.35603 -0.341051 -0.359512 -0.0143636 -0.0292689 -0.009235 -0.0200708 -0.0292689 -0.051455 -0.0200708 -0.0367515 -0.009235 -0.0200708 -0.00503687 -0.0124957 -0.0200708 -0.0367515 -0.0124957 -0.0245335 -0.311399 -0.306945 -0.328045 -0.321216 -0.306945 -0.300994 -0.321216 -0.312081 -0.328045 -0.321216 -0.337867 -0.327814 -0.321216 -0.312081 -0.327814 -0.315305 -0.337867 -0.327814 -0.337543 -0.32446 -0.327814 -0.315305 -0.32446 -0.308928 -0.337543 -0.32446 -0.32569 -0.310278 -0.32446 -0.308928 -0.310278 -0.292564 -0.351797 -0.345699 -0.357059 -0.348247 -0.345699 -0.337867 -0.348247 -0.337543 -0.357059 -0.348247 -0.34972 -0.33872 -0.348247 -0.337543 -0.33872 -0.32569 -0.315262 -0.313331 -0.336497 -0.333026 -0.313331 -0.311399 -0.333026 -0.328045 -0.336497 -0.333026 -0.351797 -0.345699 -0.333026 -0.328045 -0.345699 -0.337867 0.0689244 0.0775491 0.076208 0.0867075 0.0775491 0.0850564 0.0867075 0.0959327 0.076208 0.0867075 0.0817934 0.0942379 0.0867075 0.0959327 0.0942379 0.105258 0.0817934 0.0942379 0.0854508 0.0997848 0.0942379 0.105258 0.0997848 0.112704 0.0854508 0.0997848 0.0867852 0.103031 0.0997848 0.112704 0.103031 0.11789 0 0.00469196 0 0.00474297 0.00469196 0.0172421 0.00474297 0.0171302 0 0.00474297 0 0.00442619 0.00474297 0.0171302 0.00442619 0.0166256 -0.249502 -0.229241 -0.247646 -0.22486 -0.229241 -0.206526 -0.22486 -0.200186 -0.247646 -0.22486 -0.238984 -0.214354 -0.22486 -0.200186 -0.214354 -0.188457 -0.267329 -0.221074 -0.234971 -0.18914 -0.221074 -0.173082 -0.18914 -0.144015 -0.234971 -0.18914 -0.199668 -0.156188 -0.18914 -0.144015 -0.156188 -0.11529 -0.319159 -0.276768 -0.295456 -0.250576 -0.276768 -0.227392 -0.250576 -0.201262 -0.295456 -0.250576 -0.267329 -0.221074 -0.250576 -0.201262 -0.221074 -0.173082 -0.227392 -0.176642 -0.201262 -0.152455 -0.176642 -0.128689 -0.152455 -0.10773 -0.201262 -0.152455 -0.173082 -0.127439 -0.152455 -0.10773 -0.127439 -0.0867774 -0.173082 -0.127439 -0.144015 -0.102607 -0.127439 -0.0867774 -0.102607 -0.0666556 -0.144015 -0.102607 -0.11529 -0.0789627 -0.102607 -0.0666556 -0.0789627 -0.0481369 -0.0394621 -0.0364598 -0.0582369 -0.05438 -0.0364598 -0.0328807 -0.05438 -0.0494827 -0.0582369 -0.05438 -0.0770117 -0.0721867 -0.05438 -0.0494827 -0.0721867 -0.0661171 -0.0770117 -0.0721867 -0.0959965 -0.0901601 -0.0721867 -0.0661171 -0.0901601 -0.0825771 -0.0959965 -0.0901601 -0.11483 -0.10784 -0.0901601 -0.0825771 -0.10784 -0.0985943 0.133027 0.105527 0.144585 0.119919 0.105527 0.0783946 0.119919 0.0951069 0.144585 0.119919 0.151807 0.129935 0.119919 0.0951069 0.129935 0.107473 0.186068 0.160072 0.191317 0.168528 0.160072 0.133027 0.168528 0.144585 0.191317 0.168528 0.192402 0.17273 0.168528 0.144585 0.17273 0.151807 0 0 -0.0023446 -0.000270387 0 0 -0.000270387 0.000980483 -0.0023446 -0.000270387 -0.00624198 0.00058033 -0.000270387 0.000980483 0.00058033 0.00492544 -0.00624198 0.00058033 -0.00655632 0.0049824 0.00058033 0.00492544 0.0049824 0.0130187 -0.00655632 0.0049824 -0.00055242 0.01442 0.0049824 0.0130187 0.01442 0.0258104 -0.0492943 -0.0619356 -0.0584337 -0.0731038 -0.0619356 -0.0739084 -0.0731038 -0.0871764 -0.0584337 -0.0731038 -0.0661171 -0.0825771 -0.0731038 -0.0871764 -0.0825771 -0.0985943 -0.0230516 -0.0362563 -0.0283891 -0.0434575 -0.0362563 -0.0492943 -0.0434575 -0.0584337 -0.0283891 -0.0434575 -0.0328807 -0.0494827 -0.0434575 -0.0584337 -0.0494827 -0.0661171 -0.0104124 -0.0192228 -0.0169616 -0.0280669 -0.0192228 -0.0278477 -0.0280669 -0.038966 -0.0169616 -0.0280669 -0.0230516 -0.0362563 -0.0280669 -0.038966 -0.0362563 -0.0492943 -0.0278477 -0.0360924 -0.038966 -0.0494423 -0.0360924 -0.0437456 -0.0494423 -0.0592473 -0.038966 -0.0494423 -0.0492943 -0.0619356 -0.0494423 -0.0592473 -0.0619356 -0.0739084 -0.00806429 -0.00518719 -0.0172331 -0.0117968 -0.00518719 -0.0026503 -0.0117968 -0.00684508 -0.0172331 -0.0117968 -0.02917 -0.0209602 -0.0117968 -0.00684508 -0.0209602 -0.0132712 -0.00055242 0.01442 0.0117149 0.0292428 0.01442 0.0258104 0.0292428 0.0428427 0.0117149 0.0292428 0.0299878 0.0485419 0.0292428 0.0428427 0.0485419 0.0629886 0.0299878 0.0485419 0.052742 0.0709478 0.0485419 0.0629886 0.0709478 0.0849048 0.052742 0.0709478 0.0783946 0.0951069 0.0709478 0.0849048 0.0951069 0.107473 0.00081322 0.00143468 0.000472912 0.0023218 0.00143468 0.00087043 0.0023218 0.00273684 0.000472912 0.0023218 -0.00116499 0.00253782 0.0023218 0.00273684 0.00253782 0.00429056 -0.0638287 -0.0881689 -0.0388258 -0.0574457 -0.0881689 -0.11529 -0.0574457 -0.0789627 -0.0388258 -0.0574457 -0.0183765 -0.0318831 -0.0574457 -0.0789627 -0.0318831 -0.0481369 -0.0266018 -0.0431518 -0.0119597 -0.0236009 -0.0431518 -0.0638287 -0.0236009 -0.0388258 -0.0119597 -0.0236009 -0.000395743 -0.00787394 -0.0236009 -0.0388258 -0.00787394 -0.0183765 -0.0651525 -0.0938822 -0.0442175 -0.0664895 -0.0938822 -0.127099 -0.0664895 -0.0932953 -0.0442175 -0.0664895 -0.0266018 -0.0431518 -0.0664895 -0.0932953 -0.0431518 -0.0638287 -0.127099 -0.163115 -0.0932953 -0.123683 -0.163115 -0.199668 -0.123683 -0.156188 -0.0932953 -0.123683 -0.0638287 -0.0881689 -0.123683 -0.156188 -0.0881689 -0.11529 -0.235272 -0.22089 -0.245012 -0.227696 -0.22089 -0.203413 -0.227696 -0.207474 -0.245012 -0.227696 -0.249502 -0.229241 -0.227696 -0.207474 -0.229241 -0.206526 -0.204269 -0.195127 -0.22123 -0.20965 -0.195127 -0.183015 -0.20965 -0.194965 -0.22123 -0.20965 -0.235272 -0.22089 -0.20965 -0.194965 -0.22089 -0.203413 -0.183015 -0.167848 -0.194965 -0.177283 -0.167848 -0.149959 -0.177283 -0.157038 -0.194965 -0.177283 -0.203413 -0.183162 -0.177283 -0.157038 -0.183162 -0.160713 -0.203413 -0.183162 -0.207474 -0.184863 -0.183162 -0.160713 -0.184863 -0.160547 -0.207474 -0.184863 -0.206526 -0.181962 -0.184863 -0.160547 -0.181962 -0.15629 -0.202413 -0.24353 -0.16427 -0.204243 -0.24353 -0.280442 -0.204243 -0.242571 -0.16427 -0.204243 -0.127099 -0.163115 -0.204243 -0.242571 -0.163115 -0.199668 -0.11825 -0.159528 -0.0898584 -0.125269 -0.159528 -0.202413 -0.125269 -0.16427 -0.0898584 -0.125269 -0.0651525 -0.0938822 -0.125269 -0.16427 -0.0938822 -0.127099 -0.222334 -0.198463 -0.214565 -0.190825 -0.198463 -0.175493 -0.190825 -0.16911 -0.214565 -0.190825 -0.206856 -0.185693 -0.190825 -0.16911 -0.185693 -0.164529 -0.151541 -0.133504 -0.14104 -0.124951 -0.133504 -0.11483 -0.124951 -0.10784 -0.14104 -0.124951 -0.127781 -0.113806 -0.124951 -0.10784 -0.113806 -0.0985943 -0.183015 -0.168297 -0.167848 -0.155553 -0.168297 -0.151541 -0.155553 -0.14104 -0.167848 -0.155553 -0.149959 -0.140015 -0.155553 -0.14104 -0.140015 -0.127781 -0.204269 -0.184393 -0.195127 -0.178011 -0.184393 -0.164516 -0.178011 -0.158994 -0.195127 -0.178011 -0.183015 -0.168297 -0.178011 -0.158994 -0.168297 -0.151541 -0.164516 -0.143956 -0.158994 -0.139607 -0.143956 -0.123397 -0.139607 -0.119668 -0.158994 -0.139607 -0.151541 -0.133504 -0.139607 -0.119668 -0.133504 -0.11483 -0.0563604 -0.0757043 -0.0505756 -0.0681014 -0.0757043 -0.0945379 -0.0681014 -0.0848945 -0.0505756 -0.0681014 -0.0437456 -0.0592473 -0.0681014 -0.0848945 -0.0592473 -0.0739084 -0.0945379 -0.112106 -0.0848945 -0.100311 -0.112106 -0.127781 -0.100311 -0.113806 -0.0848945 -0.100311 -0.0739084 -0.0871764 -0.100311 -0.113806 -0.0871764 -0.0985943 0.123118 0.13428 0.114892 0.124196 0.13428 0.143467 0.124196 0.131364 0.114892 0.124196 0.105258 0.112704 0.124196 0.131364 0.112704 0.11789 0.0963624 0.11037 0.0913185 0.103825 0.11037 0