# vtk DataFile Version 3.0
#This file was generated by the deal.II library on 2020/12/25 at 19:56:16
ASCII
DATASET UNSTRUCTURED_GRID

POINTS 2304 double
0.125 0.124999 0
0.125 0.0833324 0
0.166666 0.124998 0
0.166667 0.0833322 0
0.125 0.166665 0
0.125 0.124999 0
0.166666 0.166664 0
0.166666 0.124998 0
0.0833332 0.166666 0
0.0833332 0.124999 0
0.125 0.166665 0
0.125 0.124999 0
0.0833332 0.124999 0
0.0833333 0.0833327 0
0.125 0.124999 0
0.125 0.0833324 0
0.458332 0.541659 0
0.499999 0.541659 0
0.458332 0.583326 0
0.499999 0.583326 0
0.416666 0.541659 0
0.458332 0.541659 0
0.416666 0.583326 0
0.458332 0.583326 0
0.416666 0.499992 0
0.458332 0.499992 0
0.416666 0.541659 0
0.458332 0.541659 0
0.458332 0.499992 0
0.499999 0.499992 0
0.458332 0.541659 0
0.499999 0.541659 0
0.541666 0.624993 0
0.583332 0.624993 0
0.541666 0.66666 0
0.583332 0.66666 0
0.499999 0.624993 0
0.541666 0.624993 0
0.499999 0.66666 0
0.541666 0.66666 0
0.499999 0.583326 0
0.541666 0.583326 0
0.499999 0.624993 0
0.541666 0.624993 0
0.541666 0.583326 0
0.583332 0.583326 0
0.541666 0.624993 0
0.583332 0.624993 0
0.499999 0.541659 0
0.541666 0.541659 0
0.499999 0.583326 0
0.541666 0.583326 0
0.499999 0.499992 0
0.541666 0.499992 0
0.499999 0.541659 0
0.541666 0.541659 0
0.541666 0.499992 0
0.583332 0.499992 0
0.541666 0.541659 0
0.583332 0.541659 0
0.541666 0.541659 0
0.583332 0.541659 0
0.541666 0.583326 0
0.583332 0.583326 0
0.499999 0.458326 0
0.499999 0.416659 0
0.541666 0.458326 0
0.541666 0.416659 0
0.541666 0.458326 0
0.541666 0.416659 0
0.583332 0.458326 0
0.583332 0.416659 0
0.541666 0.499992 0
0.541666 0.458326 0
0.583332 0.499992 0
0.583332 0.458326 0
0.499999 0.499992 0
0.499999 0.458326 0
0.541666 0.499992 0
0.541666 0.458326 0
0.208333 0.20833 0
0.166666 0.208331 0
0.208333 0.166664 0
0.166666 0.166664 0
0.25 0.20833 0
0.208333 0.20833 0
0.25 0.166664 0
0.208333 0.166664 0
0.249999 0.249996 0
0.208333 0.249996 0
0.25 0.20833 0
0.208333 0.20833 0
0.208333 0.249996 0
0.166666 0.249997 0
0.208333 0.20833 0
0.166666 0.208331 0
0.291666 0.874997 0
0.25 0.874998 0
0.291666 0.83333 0
0.25 0.83333 0
0.333333 0.874997 0
0.291666 0.874997 0
0.333333 0.83333 0
0.291666 0.83333 0
0.333333 0.916665 0
0.291666 0.916665 0
0.333333 0.874997 0
0.291666 0.874997 0
0.291666 0.916665 0
0.25 0.916665 0
0.291666 0.874997 0
0.25 0.874998 0
0.499999 0.374993 0
0.541666 0.374993 0
0.499999 0.416659 0
0.541666 0.416659 0
0.499999 0.333326 0
0.541666 0.333326 0
0.499999 0.374993 0
0.541666 0.374993 0
0.541666 0.333326 0
0.583332 0.333327 0
0.541666 0.374993 0
0.583332 0.374993 0
0.541666 0.374993 0
0.583332 0.374993 0
0.541666 0.416659 0
0.583332 0.416659 0
0.458332 0.499992 0
0.458332 0.458326 0
0.499999 0.499992 0
0.499999 0.458326 0
0.416666 0.499992 0
0.416666 0.458326 0
0.458332 0.499992 0
0.458332 0.458326 0
0.416666 0.458326 0
0.416666 0.416659 0
0.458332 0.458326 0
0.458332 0.416659 0
0.458332 0.458326 0
0.458332 0.416659 0
0.499999 0.458326 0
0.499999 0.416659 0
0.708333 0.166663 0
0.708333 0.124997 0
0.75 0.166664 0
0.75 0.124998 0
0.666666 0.166663 0
0.666666 0.124997 0
0.708333 0.166663 0
0.708333 0.124997 0
0.666666 0.124997 0
0.666666 0.0833314 0
0.708333 0.124997 0
0.708333 0.0833316 0
0.708333 0.124997 0
0.708333 0.0833316 0
0.75 0.124998 0
0.75 0.0833317 0
0.499999 0.29166 0
0.499999 0.249994 0
0.541666 0.29166 0
0.541666 0.249994 0
0.541666 0.29166 0
0.541666 0.249994 0
0.583333 0.29166 0
0.583333 0.249994 0
0.541666 0.333326 0
0.541666 0.29166 0
0.583332 0.333327 0
0.583333 0.29166 0
0.499999 0.333326 0
0.499999 0.29166 0
0.541666 0.333326 0
0.541666 0.29166 0
0.125 0.208331 0
0.125 0.166665 0
0.166666 0.208331 0
0.166666 0.166664 0
0.125 0.249998 0
0.125 0.208331 0
0.166666 0.249997 0
0.166666 0.208331 0
0.0833331 0.249998 0
0.0833331 0.208332 0
0.125 0.249998 0
0.125 0.208331 0
0.0833331 0.208332 0
0.0833332 0.166666 0
0.125 0.208331 0
0.125 0.166665 0
0.875 0.791665 0
0.875 0.833332 0
0.833333 0.791664 0
0.833333 0.833331 0
0.875 0.749998 0
0.875 0.791665 0
0.833333 0.749997 0
0.833333 0.791664 0
0.916666 0.749998 0
0.916666 0.791665 0
0.875 0.749998 0
0.875 0.791665 0
0.916666 0.791665 0
0.916667 0.833332 0
0.875 0.791665 0
0.875 0.833332 0
0.249999 0.458327 0
0.208333 0.458328 0
0.249999 0.416661 0
0.208333 0.416662 0
0.249999 0.499994 0
0.208333 0.499995 0
0.249999 0.458327 0
0.208333 0.458328 0
0.208333 0.499995 0
0.166666 0.499996 0
0.208333 0.458328 0
0.166666 0.458329 0
0.208333 0.458328 0
0.166666 0.458329 0
0.208333 0.416662 0
0.166666 0.416662 0
0.708333 0.458327 0
0.708333 0.41666 0
0.749999 0.458328 0
0.749999 0.416661 0
0.708332 0.499994 0
0.708333 0.458327 0
0.749999 0.499994 0
0.749999 0.458328 0
0.666666 0.499993 0
0.666666 0.458327 0
0.708332 0.499994 0
0.708333 0.458327 0
0.666666 0.458327 0
0.666666 0.41666 0
0.708333 0.458327 0
0.708333 0.41666 0
0.416666 0.583326 0
0.458332 0.583326 0
0.416666 0.624993 0
0.458332 0.624993 0
0.458332 0.583326 0
0.499999 0.583326 0
0.458332 0.624993 0
0.499999 0.624993 0
0.458332 0.624993 0
0.499999 0.624993 0
0.458332 0.66666 0
0.499999 0.66666 0
0.416666 0.624993 0
0.458332 0.624993 0
0.416666 0.66666 0
0.458332 0.66666 0
0.458333 0.708327 0
0.499999 0.708327 0
0.458333 0.749994 0
0.499999 0.749994 0
0.416666 0.708327 0
0.458333 0.708327 0
0.416666 0.749994 0
0.458333 0.749994 0
0.416666 0.66666 0
0.458332 0.66666 0
0.416666 0.708327 0
0.458333 0.708327 0
0.458332 0.66666 0
0.499999 0.66666 0
0.458333 0.708327 0
0.499999 0.708327 0
0.416667 0.958332 0
0.458333 0.958332 0
0.416667 1 0
0.458333 1 0
0.416666 0.916665 0
0.458333 0.916665 0
0.416667 0.958332 0
0.458333 0.958332 0
0.458333 0.916665 0
0.5 0.916665 0
0.458333 0.958332 0
0.5 0.958332 0
0.458333 0.958332 0
0.5 0.958332 0
0.458333 1 0
0.5 1 0
0.25 0.916665 0
0.208333 0.916665 0
0.25 0.874998 0
0.208333 0.874998 0
0.208333 0.916665 0
0.166667 0.916666 0
0.208333 0.874998 0
0.166666 0.874998 0
0.208333 0.874998 0
0.166666 0.874998 0
0.208333 0.833331 0
0.166666 0.833331 0
0.25 0.874998 0
0.208333 0.874998 0
0.25 0.83333 0
0.208333 0.833331 0
0.0416666 0.916666 0
0.0416666 0.875 0
0.0833333 0.916666 0
0.0833332 0.874999 0
0 0.916667 0
0 0.875 0
0.0416666 0.916666 0
0.0416666 0.875 0
0 0.875 0
0 0.833333 0
0.0416666 0.875 0
0.0416666 0.833333 0
0.0416666 0.875 0
0.0416666 0.833333 0
0.0833332 0.874999 0
0.0833332 0.833332 0
0.458332 0.333326 0
0.499999 0.333326 0
0.458332 0.374993 0
0.499999 0.374993 0
0.458332 0.374993 0
0.499999 0.374993 0
0.458332 0.416659 0
0.499999 0.416659 0
0.416666 0.374993 0
0.458332 0.374993 0
0.416666 0.416659 0
0.458332 0.416659 0
0.416666 0.333327 0
0.458332 0.333326 0
0.416666 0.374993 0
0.458332 0.374993 0
0.125 0.45833 0
0.125 0.416663 0
0.166666 0.458329 0
0.166666 0.416662 0
0.125 0.499997 0
0.125 0.45833 0
0.166666 0.499996 0
0.166666 0.458329 0
0.083333 0.499998 0
0.083333 0.458331 0
0.125 0.499997 0
0.125 0.45833 0
0.083333 0.458331 0
0.083333 0.416664 0
0.125 0.45833 0
0.125 0.416663 0
0.375 0.874997 0
0.333333 0.874997 0
0.374999 0.83333 0
0.333333 0.83333 0
0.416666 0.874997 0
0.375 0.874997 0
0.416666 0.833329 0
0.374999 0.83333 0
0.416666 0.916665 0
0.375 0.916665 0
0.416666 0.874997 0
0.375 0.874997 0
0.375 0.916665 0
0.333333 0.916665 0
0.375 0.874997 0
0.333333 0.874997 0
0.374999 0.374993 0
0.374999 0.416659 0
0.333332 0.374993 0
0.333332 0.41666 0
0.374999 0.333327 0
0.374999 0.374993 0
0.333333 0.333327 0
0.333332 0.374993 0
0.416666 0.333327 0
0.416666 0.374993 0
0.374999 0.333327 0
0.374999 0.374993 0
0.416666 0.374993 0
0.416666 0.416659 0
0.374999 0.374993 0
0.374999 0.416659 0
0.791666 0.333329 0
0.749999 0.333328 0
0.791666 0.291663 0
0.749999 0.291662 0
0.791666 0.291663 0
0.749999 0.291662 0
0.791666 0.249996 0
0.749999 0.249996 0
0.833333 0.291663 0
0.791666 0.291663 0
0.833333 0.249997 0
0.791666 0.249996 0
0.833333 0.33333 0
0.791666 0.333329 0
0.833333 0.291663 0
0.791666 0.291663 0
0.833333 0.749997 0
0.833333 0.791664 0
0.791666 0.749997 0
0.791666 0.791664 0
0.833333 0.791664 0
0.833333 0.833331 0
0.791666 0.791664 0
0.791666 0.833331 0
0.791666 0.791664 0
0.791666 0.833331 0
0.75 0.791663 0
0.75 0.83333 0
0.791666 0.749997 0
0.791666 0.791664 0
0.749999 0.749996 0
0.75 0.791663 0
0.291666 0.624994 0
0.291666 0.666661 0
0.249999 0.624995 0
0.249999 0.666662 0
0.291666 0.583327 0
0.291666 0.624994 0
0.249999 0.583328 0
0.249999 0.624995 0
0.333332 0.583326 0
0.333332 0.624994 0
0.291666 0.583327 0
0.291666 0.624994 0
0.333332 0.624994 0
0.333333 0.666661 0
0.291666 0.624994 0
0.291666 0.666661 0
0.416666 0.333327 0
0.374999 0.333327 0
0.416666 0.29166 0
0.374999 0.291661 0
0.374999 0.333327 0
0.333333 0.333327 0
0.374999 0.291661 0
0.333333 0.291661 0
0.374999 0.291661 0
0.333333 0.291661 0
0.374999 0.249995 0
0.333333 0.249995 0
0.416666 0.29166 0
0.374999 0.291661 0
0.416666 0.249994 0
0.374999 0.249995 0
0.624999 0.66666 0
0.624999 0.708328 0
0.583332 0.66666 0
0.583333 0.708327 0
0.666666 0.666661 0
0.666666 0.708328 0
0.624999 0.66666 0
0.624999 0.708328 0
0.666666 0.708328 0
0.666666 0.749995 0
0.624999 0.708328 0
0.624999 0.749995 0
0.624999 0.708328 0
0.624999 0.749995 0
0.583333 0.708327 0
0.583333 0.749995 0
0.875 0.541664 0
0.875 0.58333 0
0.833333 0.541663 0
0.833333 0.583329 0
0.875 0.499997 0
0.875 0.541664 0
0.833333 0.499996 0
0.833333 0.541663 0
0.916666 0.499998 0
0.916666 0.541665 0
0.875 0.499997 0
0.875 0.541664 0
0.916666 0.541665 0
0.916666 0.583331 0
0.875 0.541664 0
0.875 0.58333 0
0.958333 0.916666 0
0.916667 0.916666 0
0.958333 0.875 0
0.916667 0.874999 0
0.958333 0.875 0
0.916667 0.874999 0
0.958333 0.833333 0
0.916667 0.833332 0
1 0.875 0
0.958333 0.875 0
1 0.833333 0
0.958333 0.833333 0
1 0.916667 0
0.958333 0.916666 0
1 0.875 0
0.958333 0.875 0
0.0416666 0.125 0
0.0416666 0.083333 0
0.0833332 0.124999 0
0.0833333 0.0833327 0
0.0416666 0.166666 0
0.0416666 0.125 0
0.0833332 0.166666 0
0.0833332 0.124999 0
0 0.166667 0
0 0.125 0
0.0416666 0.166666 0
0.0416666 0.125 0
0 0.125 0
0 0.0833333 0
0.0416666 0.125 0
0.0416666 0.083333 0
[...]
POINT_DATA 2304
SCALARS solution_0 double 1
LOOKUP_TABLE default
-0.0166583 -0.00756712 -0.0289488 -0.0147824 -0.0267879 -0.0166583 -0.0438995 -0.0289488 -0.013226 -0.00762479 -0.0267879 -0.0166583 -0.00762479 -0.00304171 -0.0166583 -0.00756712 -0.01106 -0.0139735 0.0171059 0.0141051 -0.00866837 -0.01106 0.0194801 0.0171059 -0.0364885 -0.0385842 -0.00866837 -0.01106 -0.0385842 -0.0411772 -0.01106 -0.0139735 0.0396125 0.0348349 0.0701736 0.0650244 0.0433701 0.0396125 0.0739004 0.0701736 0.0141051 0.0104637 0.0433701 0.0396125 0.0104637 0.0061006 0.0396125 0.0348349 -0.0139735 -0.0173877 0.0141051 0.0104637 -0.0411772 -0.0442072 -0.0139735 -0.0173877 -0.0442072 -0.0475605 -0.0173877 -0.0212893 -0.0173877 -0.0212893 0.0104637 0.0061006 -0.0681119 -0.095927 -0.0705592 -0.0977421 -0.0705592 -0.0977421 -0.0733122 -0.100092 -0.0442072 -0.0705592 -0.0475605 -0.0733122 -0.0411772 -0.0681119 -0.0442072 -0.0705592 -0.0805929 -0.0570777 -0.0641328 -0.0438995 -0.105387 -0.0805929 -0.0864614 -0.0641328 -0.116455 -0.0912762 -0.105387 -0.0805929 -0.0912762 -0.0663529 -0.0805929 -0.0570777 0.116171 0.0868619 0.120234 0.0955225 0.142783 0.116171 0.142215 0.120234 0.14323 0.112731 0.142783 0.116171 0.112731 0.0804678 0.116171 0.0868619 -0.126037 -0.127622 -0.095927 -0.0977421 -0.158314 -0.16048 -0.126037 -0.127622 -0.16048 -0.16351 -0.127622 -0.130114 -0.127622 -0.130114 -0.0977421 -0.100092 -0.0385842 -0.0661056 -0.0411772 -0.0681119 -0.0364885 -0.0645594 -0.0385842 -0.0661056 -0.0645594 -0.093583 -0.0661056 -0.0946087 -0.0661056 -0.0946087 -0.0681119 -0.095927 -0.121193 -0.0793833 -0.090839 -0.0550868 -0.146987 -0.102432 -0.121193 -0.0793833 -0.102432 -0.0613336 -0.0793833 -0.0437382 -0.0793833 -0.0437382 -0.0550868 -0.0268772 -0.188396 -0.207272 -0.191625 -0.211044 -0.191625 -0.211044 -0.194602 -0.212338 -0.16048 -0.191625 -0.16351 -0.194602 -0.158314 -0.188396 -0.16048 -0.191625 -0.0361937 -0.0267879 -0.0570777 -0.0438995 -0.0432405 -0.0361937 -0.0663529 -0.0570777 -0.0230122 -0.0186985 -0.0432405 -0.0361937 -0.0186985 -0.013226 -0.0361937 -0.0267879 0.0171531 0.0461144 0.049432 0.0774255 -0.0016803 0.0171531 0.0291969 0.049432 -0.0311322 -0.0222853 -0.0016803 0.0171531 -0.0222853 -0.00256413 0.0171531 0.0461144 -0.0526622 -0.0447138 -0.0757338 -0.0638518 -0.0283244 -0.0239159 -0.0526622 -0.0447138 -0.0239159 -0.0180289 -0.0447138 -0.0345797 -0.0447138 -0.0345797 -0.0638518 -0.0493961 -0.0849832 -0.11461 -0.0936535 -0.124297 -0.05921 -0.0849832 -0.0660452 -0.0936535 -0.0548347 -0.0798269 -0.05921 -0.0849832 -0.0798269 -0.107628 -0.0849832 -0.11461 0.0194801 0.0171059 0.0482318 0.0462419 0.0171059 0.0141051 0.0462419 0.0433701 0.0462419 0.0433701 0.0763395 0.0739004 0.0482318 0.0462419 0.077444 0.0763395 0.106848 0.105319 0.136441 0.136484 0.10637 0.106848 0.13358 0.136441 0.077444 0.0763395 0.10637 0.106848 0.0763395 0.0739004 0.106848 0.105319 0.394089 0.418996 1 1 0.194934 0.215182 0.394089 0.418996 0.215182 0.231545 0.418996 0.440696 0.418996 0.440696 1 1 0.0804678 0.0480618 0.0868619 0.0566679 0.0480618 0.0180348 0.0566679 0.0282097 0.0566679 0.0282097 0.0694737 0.0440721 0.0868619 0.0566679 0.0955225 0.0694737 -0.0199019 -0.00471407 -0.019283 -0.00771385 0 0 -0.0199019 -0.00471407 0 0 -0.00471407 0.00047782 -0.00471407 0.00047782 -0.00771385 0.00699206 -0.156345 -0.158314 -0.124957 -0.126037 -0.124957 -0.126037 -0.0946087 -0.095927 -0.123767 -0.124957 -0.093583 -0.0946087 -0.153557 -0.156345 -0.123767 -0.124957 -0.0230156 -0.0335464 -0.0345797 -0.0493961 -0.0110098 -0.0230156 -0.0180289 -0.0345797 -0.00417793 -0.0114286 -0.0110098 -0.0230156 -0.0114286 -0.0178081 -0.0230156 -0.0335464 0.165521 0.142783 0.160509 0.142215 0.183688 0.165521 0.174574 0.160509 0.194934 0.170848 0.183688 0.165521 0.170848 0.14323 0.165521 0.142783 -0.121449 -0.0922399 -0.11668 -0.0895313 -0.148637 -0.121449 -0.140289 -0.11668 -0.153557 -0.123767 -0.148637 -0.121449 -0.123767 -0.093583 -0.121449 -0.0922399 -0.159941 -0.174676 -0.15008 -0.178354 -0.15008 -0.178354 -0.125155 -0.161798 -0.10861 -0.15008 -0.0823326 -0.125155 -0.127669 -0.159941 -0.10861 -0.15008 0.0291969 0.049432 0.0535633 0.0764157 0.049432 0.0774255 0.0764157 0.104658 0.0764157 0.104658 0.100917 0.128849 0.0535633 0.0764157 0.0752992 0.100917 0.0462481 0.0693595 0.04211 0.0620282 0.021329 0.0462481 0.0198556 0.04211 0.0217763 0.0485827 0.021329 0.0462481 0.0485827 0.0743441 0.0462481 0.0693595 -0.153557 -0.148637 -0.178417 -0.169437 -0.148637 -0.140289 -0.169437 -0.156459 -0.169437 -0.156459 -0.178354 -0.161152 -0.178417 -0.169437 -0.191528 -0.178354 0.0582407 0.0889055 0.0650244 0.096506 0.0496272 0.0788347 0.0582407 0.0889055 0.0788347 0.108804 0.0889055 0.120262 0.0889055 0.120262 0.096506 0.128511 -0.0770632 -0.0615764 -0.0677876 -0.0456047 -0.0907262 -0.0770632 -0.0909355 -0.0677876 -0.0633099 -0.0606514 -0.0907262 -0.0770632 -0.0606514 -0.0554696 -0.0770632 -0.0615764 0.0656134 0.162866 -0.0139328 0.0460733 -0.0139328 0.0460733 -0.0309427 -0.00256413 0 -0.0139328 0 -0.0309427 0 0.0656134 0 -0.0139328 -0.00189754 -0.000564091 -0.00762479 -0.00304171 -0.00362632 -0.00189754 -0.013226 -0.00762479 0 0 -0.00362632 -0.00189754 0 0 -0.00189754 -0.000564091 -0.00771385 0.00699206 0.00546115 0.0219523 0.00546115 0.0219523 0.0282097 0.0440721 -0.00651812 0.00546115 0.0180348 0.0282097 -0.019283 -0.00771385 -0.00651812 0.00546115 -0.0522799 0 -0.046939 0 -0.0978195 -0.0522799 -0.0898963 -0.046939 -0.100539 -0.0538366 -0.0978195 -0.0522799 -0.0538366 0 -0.0522799 0 0.468793 1 0.493859 1 0.217234 0.468793 0.24103 0.493859 0.162866 0.41304 0.217234 0.468793 0.41304 1 0.468793 1 -0.00758351 -0.0252082 -0.00661673 -0.0225948 -0.00661673 -0.0225948 -0.00488595 -0.0178081 0 -0.00661673 0 -0.00488595 0 -0.00758351 0 -0.00661673 -0.139705 -0.147226 -0.107628 -0.11461 -0.172797 -0.176693 -0.139705 -0.147226 -0.176693 -0.174676 -0.147226 -0.153939 -0.147226 -0.153939 -0.11461 -0.124297 -0.18442 -0.146987 -0.161079 -0.121193 -0.161079 -0.121193 -0.129415 -0.090839 -0.187729 -0.161079 -0.161798 -0.129415 -0.203058 -0.18442 -0.187729 -0.161079 -0.140289 -0.11668 -0.127663 -0.108312 -0.11668 -0.0895313 -0.108312 -0.0842893 -0.108312 -0.0842893 -0.0958465 -0.0757338 -0.127663 -0.108312 -0.110773 -0.0958465 -0.0554696 -0.0491874 -0.0615764 -0.0460163 -0.0491874 -0.0428735 -0.0460163 -0.0311516 -0.0460163 -0.0311516 -0.0252222 -0.00649983 -0.0615764 -0.0460163 -0.0456047 -0.0252222 -0.146987 -0.166175 -0.102432 -0.121591 -0.166175 -0.178268 -0.121591 -0.135315 -0.121591 -0.135315 -0.0773352 -0.0898963 -0.102432 -0.121591 -0.0613336 -0.0773352 0 0 -0.000564091 -0.000666652 0 0 -0.000666652 0 -0.000666652 0 -0.000238795 0 -0.000564091 -0.000666652 -0.00304171 -0.000238795 -0.0219183 -0.0213914 -0.0491874 -0.0428735 -0.022297 -0.0219183 -0.0554696 -0.0491874 0 0 -0.022297 -0.0219183 0 0 -0.0219183 -0.0213914 -0.0328667 -0.0550868 -0.0130179 -0.0268772 -0.0157418 -0.0328667 -0.00365905 -0.0130179 -0.0329934 -0.0598244 -0.0157418 -0.0328667 -0.0598244 -0.090839 -0.0328667 -0.0550868 -0.0812991 -0.127669 -0.0620737 -0.10861 -0.0620737 -0.10861 -0.0426942 -0.0823326 -0.0244171 -0.0620737 -0.0153583 -0.0426942 -0.0354568 -0.0812991 -0.0244171 -0.0620737 0.252801 0.258979 0.150221 0.168266 0.150221 0.168266 0.104658 0.128849 0.128348 0.150221 0.0774255 0.104658 0.24103 0.252801 0.128348 0.150221 -0.118188 -0.0946741 -0.116455 -0.0912762 -0.110773 -0.0905277 -0.118188 -0.0946741 -0.0905277 -0.0684354 -0.0946741 -0.0703054 -0.0946741 -0.0703054 -0.0912762 -0.0663529 0.032549 0.0535633 0.0505493 0.0752992 0.0122153 0.032549 0.026626 0.0505493 -0.00649983 0.011268 0.0122153 0.032549 0.011268 0.0291969 0.032549 0.0535633 -0.000425223 0.00169952 0 0 0 -0.000425223 0 0 0 0.000720801 0 -0.000425223 0.000720801 0.00161013 -0.000425223 0.00169952 0 -0.0199019 0 0.0928087 -0.0199019 -0.019283 0.0928087 0.129384 0.0928087 0.129384 1 1 0 0.0928087 1 1 -0.0370428 -0.0311322 -0.0167821 -0.0016803 -0.0167821 -0.0016803 0.011268 0.0291969 -0.0311516 -0.0167821 -0.00649983 0.011268 -0.0428735 -0.0370428 -0.0311516 -0.0167821 -0.125155 -0.161798 -0.0922614 -0.129415 -0.0922614 -0.129415 -0.0598244 -0.090839 -0.0556033 -0.0922614 -0.0329934 -0.0598244 -0.0823326 -0.125155 -0.0556033 -0.0922614 -0.152849 -0.13252 -0.153939 -0.124297 -0.159941 -0.152849 -0.174676 -0.153939 -0.127669 -0.134649 -0.159941 -0.152849 -0.134649 -0.128681 -0.152849 -0.13252 -0.0253297 -0.0230122 -0.0467538 -0.0432405 -0.0467538 -0.0432405 -0.0703054 -0.0663529 -0.0461678 -0.0467538 -0.0684354 -0.0703054 -0.0252082 -0.0253297 -0.0461678 -0.0467538 -0.0797205 -0.0638518 -0.0611247 -0.0493961 -0.0905277 -0.0797205 -0.0684354 -0.0611247 -0.110773 -0.0958465 -0.0905277 -0.0797205 -0.0958465 -0.0757338 -0.0797205 -0.0638518 0.133583 0.142215 0.116435 0.120234 0.116435 0.120234 0.096542 0.0955225 0.105796 0.116435 0.0905118 0.096542 0.118344 0.133583 0.105796 0.116435 -0.0225948 -0.0415671 -0.0178081 -0.0335464 -0.0252082 -0.0461678 -0.0225948 -0.0415671 -0.0461678 -0.0684354 -0.0415671 -0.0611247 -0.0415671 -0.0611247 -0.0335464 -0.0493961 0.0620282 0.0785693 0.0529286 0.0655845 0.0785693 0.0905118 0.0655845 0.0733502 0.0655845 0.0733502 0.0513655 0.0551138 0.0529286 0.0655845 0.042761 0.0513655 -0.0798269 -0.0763053 -0.107628 -0.103166 -0.0548347 -0.0511124 -0.0798269 -0.0763053 -0.0511124 -0.0475605 -0.0763053 -0.0733122 -0.0763053 -0.0733122 -0.103166 -0.100092 -0.00765654 -0.00687083 -0.0253297 -0.0230122 -0.00758351 -0.00765654 -0.0252082 -0.0253297 0 0 -0.00758351 -0.00765654 0 0 -0.00765654 -0.00687083 0.0749724 0.0694737 0.0529373 0.0440721 0.0733502 0.0749724 0.0551138 0.0529373 0.0905118 0.096542 0.0733502 0.0749724 0.096542 0.0955225 0.0749724 0.0694737 -0.0213914 -0.0215698 -0.0428735 -0.0370428 0 0 -0.0213914 -0.0215698 0 0 -0.0215698 -0.0236598 -0.0215698 -0.0236598 -0.0370428 -0.0311322 0.29259 1 0.41304 1 0.0656134 0.29259 0.162866 0.41304 0 0 0.0656134 0.29259 0 1 0.29259 1 -0.0236598 -0.0282343 -0.0311322 -0.0222853 0 0 -0.0236598 -0.0282343 0 0 -0.0282343 -0.0309427 -0.0282343 -0.0309427 -0.0222853 -0.00256413 0.0460733 0.100091 -0.00256413 0.0461144 0.162866 0.217234 0.0460733 0.100091 0.217234 0.24103 0.100091 0.128348 0.100091 0.128348 0.0461144 0.0774255 -0.03131 -0.0283244 -0.0581089 -0.0526622 -0.0581089 -0.0526622 -0.0842893 -0.0757338 -0.0613568 -0.0581089 -0.0895313 -0.0842893 -0.0332716 -0.03131 -0.0613568 -0.0581089 -0.00687083 -0.00541342 -0.0230122 -0.0186985 0 0 -0.00687083 -0.00541342 0 0 -0.00541342 -0.00362632 -0.00541342 -0.00362632 -0.0186985 -0.013226 -0.127663 -0.110773 -0.139196 -0.118188 -0.139196 -0.118188 -0.140216 -0.116455 -0.156459 -0.139196 -0.161152 -0.140216 -0.140289 -0.127663 -0.156459 -0.139196 -0.199319 -0.207016 -0.166175 -0.178268 -0.18442 -0.199319 -0.146987 -0.166175 -0.203058 -0.210324 -0.18442 -0.199319 -0.210324 -0.212338 -0.199319 -0.207016 0.0390766 0.026626 0.0660729 0.0505493 0.0660729 0.0505493 0.0938452 0.0752992 0.0788347 0.0660729 0.108804 0.0938452 0.0496272 0.0390766 0.0788347 0.0660729 0.14323 0.336066 0.112731 0.304163 0.336066 1 0.304163 1 0.304163 1 0.271312 1 0.112731 0.304163 0.0804678 0.271312 0.0480618 0.238152 0.0180348 0.204545 0.0804678 0.271312 0.0480618 0.238152 0.271312 1 0.238152 1 0.238152 1 0.204545 1 0.0152737 0.0236659 0.0187497 0.0315367 0.00989163 0.0133153 0.0152737 0.0236659 0.0133153 0.0155261 0.0236659 0.0304451 0.0236659 0.0304451 0.0315367 0.042761 0 0 -0.020523 -0.0219586 0 0 -0.0219586 -0.022297 -0.0219586 -0.022297 -0.0606514 -0.0554696 -0.020523 -0.0219586 -0.0633099 -0.0606514 0.157067 0.174574 0.14724 0.160509 0.14724 0.160509 0.133583 0.142215 0.127627 0.14724 0.118344 0.133583 0.13358 0.157067 0.127627 0.14724 -0.211044 -0.208932 -0.212338 -0.207016 -0.207272 -0.206047 -0.211044 -0.208932 -0.206047 -0.182905 -0.208932 -0.183631 -0.208932 -0.183631 -0.207016 -0.178268 0 0.0053618 0 0.00595115 0 0.00404516 0 0.0053618 0.00404516 0.00989163 0.0053618 0.0152737 0.0053618 0.0152737 0.00595115 0.0187497 -0.0777349 -0.0660452 -0.105541 -0.0936535 -0.105541 -0.0936535 -0.13252 -0.124297 -0.112596 -0.105541 -0.128681 -0.13252 -0.0909355 -0.0777349 -0.112596 -0.105541 0 0 -0.000202521 -0.00264354 0 0 -0.00264354 -0.00488595 -0.00264354 -0.00488595 -0.0114286 -0.0178081 -0.000202521 -0.00264354 -0.00417793 -0.0114286 0.366275 1 0.336066 1 0.170848 0.366275 0.14323 0.336066 0.194934 0.394089 0.170848 0.366275 0.394089 1 0.366275 1 -0.0909355 -0.0677876 -0.0777349 -0.0521368 -0.0677876 -0.0456047 -0.0521368 -0.0292123 -0.0521368 -0.0292123 -0.0416634 -0.0189495 -0.0777349 -0.0521368 -0.0660452 -0.0416634 -0.0613336 -0.0280197 -0.0437382 -0.0172799 -0.0280197 0 -0.0172799 0 -0.0172799 0 -0.00788935 0 -0.0437382 -0.0172799 -0.0268772 -0.00788935 -0.00365905 -0.0130179 0.0024899 -0.0011033 -0.0130179 -0.0268772 -0.0011033 -0.00788935 -0.0011033 -0.00788935 0 0 0.0024899 -0.0011033 0 0 -0.0907662 -0.0796002 -0.0461515 -0.0387571 -0.0796002 -0.0658997 -0.0387571 -0.0304575 -0.0387571 -0.0304575 0 0 -0.0461515 -0.0387571 0 0 -0.0957512 -0.102202 -0.134649 -0.128681 -0.0812991 -0.0957512 -0.127669 -0.134649 -0.0354568 -0.0468673 -0.0812991 -0.0957512 -0.0468673 -0.0564069 -0.0957512 -0.102202 0.13358 0.136441 0.157067 0.163067 0.136441 0.136484 0.163067 0.165391 0.163067 0.165391 0.184201 0.189376 0.157067 0.163067 0.174574 0.184201 0.0216676 0.0132016 0.0496272 0.0390766 -0.00494618 -0.0115153 0.0216676 0.0132016 -0.0115153 -0.0189495 0.0132016 0.00354887 0.0132016 0.00354887 0.0390766 0.026626 0.16992 0.204545 1 1 0.129384 0.16992 1 1 -0.019283 -0.00651812 0.129384 0.16992 -0.00651812 0.0180348 0.16992 0.204545 -0.129794 -0.105387 -0.109323 -0.0864614 -0.152281 -0.129794 -0.131019 -0.109323 -0.161152 -0.140216 -0.152281 -0.129794 -0.140216 -0.116455 -0.129794 -0.105387 -0.0456047 -0.0252222 -0.0292123 -0.00810595 -0.0252222 -0.00649983 -0.00810595 0.0122153 -0.00810595 0.0122153 0.00354887 0.026626 -0.0292123 -0.00810595 -0.0189495 0.00354887 -0.020523 -0.0633099 -0.017941 -0.0621111 -0.017941 -0.0621111 -0.0144349 -0.0564069 0 -0.017941 0 -0.0144349 0 -0.020523 0 -0.017941 -0.0280197 -0.0384498 0 0 -0.0613336 -0.0773352 -0.0280197 -0.0384498 -0.0773352 -0.0898963 -0.0384498 -0.046939 -0.0384498 -0.046939 0 0 -0.0348187 -0.0332716 -0.0631966 -0.0613568 -0.0631966 -0.0613568 -0.0922399 -0.0895313 -0.0645594 -0.0631966 -0.093583 -0.0922399 -0.0364885 -0.0348187 -0.0645594 -0.0631966 -0.0256286 0.000956555 -0.0212893 0.0061006 -0.0511124 -0.0256286 -0.0475605 -0.0212893 -0.0548347 -0.030307 -0.0511124 -0.0256286 -0.030307 -0.00494618 -0.0256286 0.000956555 0.00314116 0.0024899 0 0 0.00169952 0.00314116 0 0 0.00161013 0.000892874 0.00169952 0.00314116 0.000892874 -0.00365905 0.00314116 0.0024899 -0.144664 -0.100539 -0.143001 -0.0978195 -0.143001 -0.0978195 -0.135315 -0.0898963 -0.183631 -0.143001 -0.178268 -0.135315 -0.182905 -0.144664 -0.183631 -0.143001 -0.000202521 -0.00417793 0.00212 0.0031782 0.00212 0.0031782 0.00404516 0.00989163 0 0.00212 0 0.00404516 0 -0.000202521 0 0.00212 -0.187315 -0.165591 -0.1988 -0.176708 -0.1988 -0.176708 -0.206047 -0.182905 -0.200957 -0.1988 -0.207272 -0.206047 -0.191528 -0.187315 -0.200957 -0.1988 -0.167738 -0.133964 -0.16351 -0.130114 -0.172797 -0.139705 -0.167738 -0.133964 -0.139705 -0.107628 -0.133964 -0.103166 -0.133964 -0.103166 -0.130114 -0.100092 -0.0364885 -0.00866837 -0.0348187 -0.00683712 -0.00866837 0.0194801 -0.00683712 0.0211082 -0.00683712 0.0211082 -0.00555784 0.0217763 -0.0348187 -0.00683712 -0.0332716 -0.00555784 -0.00867963 -0.0264183 -0.00386956 -0.014109 -0.0153583 -0.0426942 -0.00867963 -0.0264183 -0.0426942 -0.0823326 -0.0264183 -0.0556033 -0.0264183 -0.0556033 -0.014109 -0.0329934 -0.197096 -0.194602 -0.210324 -0.212338 -0.197601 -0.197096 -0.203058 -0.210324 -0.172797 -0.167738 -0.197601 -0.197096 -0.167738 -0.16351 -0.197096 -0.194602 0.0482318 0.077444 0.0491372 0.0769235 0.0491372 0.0769235 0.0485827 0.0743441 0.0211082 0.0491372 0.0217763 0.0485827 0.0194801 0.0482318 0.0211082 0.0491372 -0.030307 -0.0353462 -0.00494618 -0.0115153 -0.0548347 -0.05921 -0.030307 -0.0353462 -0.05921 -0.0660452 -0.0353462 -0.0416634 -0.0353462 -0.0416634 -0.0115153 -0.0189495 -0.156345 -0.184337 -0.158314 -0.188396 -0.153557 -0.178417 -0.156345 -0.184337 -0.178417 -0.191528 -0.184337 -0.200957 -0.184337 -0.200957 -0.188396 -0.207272 0.04211 0.0620282 0.0366183 0.0529286 0.0366183 0.0529286 0.0304451 0.042761 0.0177384 0.0366183 0.0155261 0.0304451 0.0198556 0.04211 0.0177384 0.0366183 0.10637 0.13358 0.103572 0.127627 0.103572 0.127627 0.0980614 0.118344 0.0769235 0.103572 0.0743441 0.0980614 0.077444 0.10637 0.0769235 0.103572 -0.0621111 -0.0999924 -0.0564069 -0.102202 -0.0633099 -0.0907262 -0.0621111 -0.0999924 -0.0907262 -0.0909355 -0.0999924 -0.112596 -0.0999924 -0.112596 -0.102202 -0.128681 -0.00494618 0.0216676 0.000956555 0.0288838 0.0216676 0.0496272 0.0288838 0.0582407 0.0288838 0.0582407 0.0348349 0.0650244 0.000956555 0.0288838 0.0061006 0.0348349 -0.197601 -0.203058 -0.192887 -0.187729 -0.192887 -0.187729 -0.178354 -0.161798 -0.176693 -0.192887 -0.174676 -0.178354 -0.172797 -0.197601 -0.176693 -0.192887 0.000394543 -0.000376086 0.000720801 0.00161013 0 0.000394543 0 0.000720801 0 -0.000318588 0 0.000394543 -0.000318588 -0.00386956 0.000394543 -0.000376086 0.0739004 0.0701736 0.105319 0.101902 0.0701736 0.0650244 0.101902 0.096506 0.101902 0.096506 0.133853 0.128511 0.105319 0.101902 0.136484 0.133853 0.0980614 0.118344 0.089637 0.105796 0.089637 0.105796 0.0785693 0.0905118 0.0693595 0.089637 0.0620282 0.0785693 0.0743441 0.0980614 0.0693595 0.089637 0.215182 0.196988 0.231545 0.205414 0.194934 0.183688 0.215182 0.196988 0.183688 0.174574 0.196988 0.184201 0.196988 0.184201 0.205414 0.189376 -0.00275091 0.0177384 -0.000967342 0.0155261 -0.0239159 -0.00275091 -0.0180289 -0.000967342 -0.0283244 -0.00387459 -0.0239159 -0.00275091 -0.00387459 0.0198556 -0.00275091 0.0177384 -0.0332716 -0.00555784 -0.03131 -0.00468233 -0.00555784 0.0217763 -0.00468233 0.021329 -0.00468233 0.021329 -0.00387459 0.0198556 -0.03131 -0.00468233 -0.0283244 -0.00387459 -0.00510929 -0.0157418 0.000892874 -0.00365905 -0.000376086 -0.00510929 0.00161013 0.000892874 -0.00386956 -0.014109 -0.000376086 -0.00510929 -0.014109 -0.0329934 -0.00510929 -0.0157418 -0.178354 -0.161152 -0.171694 -0.152281 -0.171694 -0.152281 -0.15012 -0.131019 -0.187315 -0.171694 -0.165591 -0.15012 -0.191528 -0.178354 -0.187315 -0.171694 -0.0907662 -0.0461515 -0.0980428 -0.0515566 -0.0461515 0 -0.0515566 0 -0.0515566 0 -0.0538366 0 -0.0980428 -0.0515566 -0.100539 -0.0538366 0.164164 0.159379 0.190149 0.186546 0.165391 0.164164 0.189376 0.190149 0.136484 0.133853 0.165391 0.164164 0.133853 0.128511 0.164164 0.159379 -0.00455552 -0.0244171 -0.00261723 -0.0153583 0 -0.00455552 0 -0.00261723 0 -0.00721995 0 -0.00455552 -0.00721995 -0.0354568 -0.00455552 -0.0244171 -0.0106207 -0.0144349 -0.0468673 -0.0564069 -0.00721995 -0.0106207 -0.0354568 -0.0468673 0 0 -0.00721995 -0.0106207 0 0 -0.0106207 -0.0144349 -0.0247436 -0.0147824 -0.00862477 -0.00401745 -0.00862477 -0.00401745 0 0 -0.0148088 -0.00862477 0 0 -0.0371358 -0.0247436 -0.0148088 -0.00862477 -0.0658997 -0.0512428 -0.0304575 -0.0222351 -0.0512428 -0.0371358 -0.0222351 -0.0148088 -0.0222351 -0.0148088 0 0 -0.0304575 -0.0222351 0 0 0.150879 0.178556 0.159379 0.186546 0.120262 0.150879 0.128511 0.159379 0.108804 0.138409 0.120262 0.150879 0.138409 0.166179 0.150879 0.178556 0.26179 0.495446 0.258999 0.486308 0.495446 1 0.486308 1 0.486308 1 0.474246 1 0.258999 0.486308 0.253207 0.474246 -0.131019 -0.109323 -0.100885 -0.0818407 -0.109323 -0.0864614 -0.0818407 -0.0624726 -0.0818407 -0.0624726 -0.0512428 -0.0371358 -0.100885 -0.0818407 -0.0658997 -0.0512428 -0.15012 -0.131019 -0.117907 -0.100885 -0.117907 -0.100885 -0.0796002 -0.0658997 -0.131499 -0.117907 -0.0907662 -0.0796002 -0.165591 -0.15012 -0.131499 -0.117907 0.0031782 0.00143344 0.00989163 0.0133153 -0.00417793 -0.0110098 0.0031782 0.00143344 -0.0110098 -0.0180289 0.00143344 -0.000967