# vtk DataFile Version 3.0
#This file was generated by the deal.II library on 2020/11/19 at 14:48:16
ASCII
DATASET UNSTRUCTURED_GRID

POINTS 4416 double
0.125 0.124999 0
0.125 0.0833324 0
0.166666 0.124998 0
0.166667 0.0833322 0
0.125 0.166665 0
0.125 0.124999 0
0.166666 0.166664 0
0.166666 0.124998 0
0.0833332 0.166666 0
0.0833332 0.124999 0
0.125 0.166665 0
0.125 0.124999 0
0.0833332 0.124999 0
0.0833333 0.0833327 0
0.125 0.124999 0
0.125 0.0833324 0
0.458332 0.541659 0
0.499999 0.541659 0
0.458332 0.583326 0
0.499999 0.583326 0
0.416666 0.541659 0
0.458332 0.541659 0
0.416666 0.583326 0
0.458332 0.583326 0
0.416666 0.499992 0
0.458332 0.499992 0
0.416666 0.541659 0
0.458332 0.541659 0
0.458332 0.499992 0
0.499999 0.499992 0
0.458332 0.541659 0
0.499999 0.541659 0
0.541666 0.624993 0
0.583332 0.624993 0
0.541666 0.66666 0
0.583332 0.66666 0
0.499999 0.624993 0
0.541666 0.624993 0
0.499999 0.66666 0
0.541666 0.66666 0
0.499999 0.583326 0
0.541666 0.583326 0
0.499999 0.624993 0
0.541666 0.624993 0
0.541666 0.583326 0
0.583332 0.583326 0
0.541666 0.624993 0
0.583332 0.624993 0
0.499999 0.541659 0
0.541666 0.541659 0
0.499999 0.583326 0
0.541666 0.583326 0
0.499999 0.499992 0
0.541666 0.499992 0
0.499999 0.541659 0
0.541666 0.541659 0
0.541666 0.499992 0
0.583332 0.499992 0
0.541666 0.541659 0
0.583332 0.541659 0
0.541666 0.541659 0
0.583332 0.541659 0
0.541666 0.583326 0
0.583332 0.583326 0
0.499999 0.458326 0
0.499999 0.416659 0
0.541666 0.458326 0
0.541666 0.416659 0
0.541666 0.458326 0
0.541666 0.416659 0
0.583332 0.458326 0
0.583332 0.416659 0
0.541666 0.499992 0
0.541666 0.458326 0
0.583332 0.499992 0
0.583332 0.458326 0
0.499999 0.499992 0
0.499999 0.458326 0
0.541666 0.499992 0
0.541666 0.458326 0
0.208333 0.20833 0
0.166666 0.208331 0
0.208333 0.166664 0
0.166666 0.166664 0
0.25 0.20833 0
0.208333 0.20833 0
0.25 0.166664 0
0.208333 0.166664 0
0.249999 0.249996 0
0.208333 0.249996 0
0.25 0.20833 0
0.208333 0.20833 0
0.208333 0.249996 0
0.166666 0.249997 0
0.208333 0.20833 0
0.166666 0.208331 0
0.499999 0.374993 0
0.541666 0.374993 0
0.499999 0.416659 0
0.541666 0.416659 0
0.499999 0.333326 0
0.541666 0.333326 0
0.499999 0.374993 0
0.541666 0.374993 0
0.541666 0.333326 0
0.583332 0.333327 0
0.541666 0.374993 0
0.583332 0.374993 0
0.541666 0.374993 0
0.583332 0.374993 0
0.541666 0.416659 0
0.583332 0.416659 0
0.458332 0.499992 0
0.458332 0.458326 0
0.499999 0.499992 0
0.499999 0.458326 0
0.416666 0.499992 0
0.416666 0.458326 0
0.458332 0.499992 0
0.458332 0.458326 0
0.416666 0.458326 0
0.416666 0.416659 0
0.458332 0.458326 0
0.458332 0.416659 0
0.458332 0.458326 0
0.458332 0.416659 0
0.499999 0.458326 0
0.499999 0.416659 0
0.708333 0.166663 0
0.708333 0.124997 0
0.75 0.166664 0
0.75 0.124998 0
0.666666 0.166663 0
0.666666 0.124997 0
0.708333 0.166663 0
0.708333 0.124997 0
0.666666 0.124997 0
0.666666 0.0833314 0
0.708333 0.124997 0
0.708333 0.0833316 0
0.708333 0.124997 0
0.708333 0.0833316 0
0.75 0.124998 0
0.75 0.0833317 0
0.499999 0.29166 0
0.499999 0.249994 0
0.541666 0.29166 0
0.541666 0.249994 0
0.541666 0.29166 0
0.541666 0.249994 0
0.583333 0.29166 0
0.583333 0.249994 0
0.541666 0.333326 0
0.541666 0.29166 0
0.583332 0.333327 0
0.583333 0.29166 0
0.499999 0.333326 0
0.499999 0.29166 0
0.541666 0.333326 0
0.541666 0.29166 0
0.125 0.208331 0
0.125 0.166665 0
0.166666 0.208331 0
0.166666 0.166664 0
0.125 0.249998 0
0.125 0.208331 0
0.166666 0.249997 0
0.166666 0.208331 0
0.0833331 0.249998 0
0.0833331 0.208332 0
0.125 0.249998 0
0.125 0.208331 0
0.0833331 0.208332 0
0.0833332 0.166666 0
0.125 0.208331 0
0.125 0.166665 0
0.249999 0.458327 0
0.208333 0.458328 0
0.249999 0.416661 0
0.208333 0.416662 0
0.249999 0.499994 0
0.208333 0.499995 0
0.249999 0.458327 0
0.208333 0.458328 0
0.208333 0.499995 0
0.166666 0.499996 0
0.208333 0.458328 0
0.166666 0.458329 0
0.208333 0.458328 0
0.166666 0.458329 0
0.208333 0.416662 0
0.166666 0.416662 0
0.708333 0.458327 0
0.708333 0.41666 0
0.749999 0.458328 0
0.749999 0.416661 0
0.708332 0.499994 0
0.708333 0.458327 0
0.749999 0.499994 0
0.749999 0.458328 0
0.666666 0.499993 0
0.666666 0.458327 0
0.708332 0.499994 0
0.708333 0.458327 0
0.666666 0.458327 0
0.666666 0.41666 0
0.708333 0.458327 0
0.708333 0.41666 0
0.416666 0.583326 0
0.458332 0.583326 0
0.416666 0.624993 0
0.458332 0.624993 0
0.458332 0.583326 0
0.499999 0.583326 0
0.458332 0.624993 0
0.499999 0.624993 0
0.458332 0.624993 0
0.499999 0.624993 0
0.458332 0.66666 0
0.499999 0.66666 0
0.416666 0.624993 0
0.458332 0.624993 0
0.416666 0.66666 0
0.458332 0.66666 0
0.458333 0.708327 0
0.499999 0.708327 0
0.458333 0.749994 0
0.499999 0.749994 0
0.416666 0.708327 0
0.458333 0.708327 0
0.416666 0.749994 0
0.458333 0.749994 0
0.416666 0.66666 0
0.458332 0.66666 0
0.416666 0.708327 0
0.458333 0.708327 0
0.458332 0.66666 0
0.499999 0.66666 0
0.458333 0.708327 0
0.499999 0.708327 0
0.458332 0.333326 0
0.499999 0.333326 0
0.458332 0.374993 0
0.499999 0.374993 0
0.458332 0.374993 0
0.499999 0.374993 0
0.458332 0.416659 0
0.499999 0.416659 0
0.416666 0.374993 0
0.458332 0.374993 0
0.416666 0.416659 0
0.458332 0.416659 0
0.416666 0.333327 0
0.458332 0.333326 0
0.416666 0.374993 0
0.458332 0.374993 0
0.125 0.45833 0
0.125 0.416663 0
0.166666 0.458329 0
0.166666 0.416662 0
0.125 0.499997 0
0.125 0.45833 0
0.166666 0.499996 0
0.166666 0.458329 0
0.083333 0.499998 0
0.083333 0.458331 0
0.125 0.499997 0
0.125 0.45833 0
0.083333 0.458331 0
0.083333 0.416664 0
0.125 0.45833 0
0.125 0.416663 0
0.374999 0.374993 0
0.374999 0.416659 0
0.333332 0.374993 0
0.333332 0.41666 0
0.374999 0.333327 0
0.374999 0.374993 0
0.333333 0.333327 0
0.333332 0.374993 0
0.416666 0.333327 0
0.416666 0.374993 0
0.374999 0.333327 0
0.374999 0.374993 0
0.416666 0.374993 0
0.416666 0.416659 0
0.374999 0.374993 0
0.374999 0.416659 0
0.791666 0.333329 0
0.749999 0.333328 0
0.791666 0.291663 0
0.749999 0.291662 0
0.791666 0.291663 0
0.749999 0.291662 0
0.791666 0.249996 0
0.749999 0.249996 0
0.833333 0.291663 0
0.791666 0.291663 0
0.833333 0.249997 0
0.791666 0.249996 0
0.833333 0.33333 0
0.791666 0.333329 0
0.833333 0.291663 0
0.791666 0.291663 0
0.291666 0.624994 0
0.291666 0.666661 0
0.249999 0.624995 0
0.249999 0.666662 0
0.291666 0.583327 0
0.291666 0.624994 0
0.249999 0.583328 0
0.249999 0.624995 0
0.333332 0.583326 0
0.333332 0.624994 0
0.291666 0.583327 0
0.291666 0.624994 0
0.333332 0.624994 0
0.333333 0.666661 0
0.291666 0.624994 0
0.291666 0.666661 0
0.416666 0.333327 0
0.374999 0.333327 0
0.416666 0.29166 0
0.374999 0.291661 0
0.374999 0.333327 0
0.333333 0.333327 0
0.374999 0.291661 0
0.333333 0.291661 0
0.374999 0.291661 0
0.333333 0.291661 0
0.374999 0.249995 0
0.333333 0.249995 0
0.416666 0.29166 0
0.374999 0.291661 0
0.416666 0.249994 0
0.374999 0.249995 0
0.624999 0.66666 0
0.624999 0.708328 0
0.583332 0.66666 0
0.583333 0.708327 0
0.666666 0.666661 0
0.666666 0.708328 0
0.624999 0.66666 0
0.624999 0.708328 0
0.666666 0.708328 0
0.666666 0.749995 0
0.624999 0.708328 0
0.624999 0.749995 0
0.624999 0.708328 0
0.624999 0.749995 0
0.583333 0.708327 0
0.583333 0.749995 0
0.0416666 0.125 0
0.0416666 0.083333 0
0.0833332 0.124999 0
0.0833333 0.0833327 0
0.0416666 0.166666 0
0.0416666 0.125 0
0.0833332 0.166666 0
0.0833332 0.124999 0
0 0.166667 0
0 0.125 0
0.0416666 0.166666 0
0.0416666 0.125 0
0 0.125 0
0 0.0833333 0
0.0416666 0.125 0
0.0416666 0.083333 0
0.541667 0.0416655 0
0.541667 0 0
0.583333 0.0416656 0
0.583333 0 0
0.541666 0.0833311 0
0.541667 0.0416655 0
0.583333 0.0833311 0
0.583333 0.0416656 0
0.5 0.0833311 0
0.5 0.0416655 0
0.541666 0.0833311 0
0.541667 0.0416655 0
0.5 0.0416655 0
0.5 0 0
0.541667 0.0416655 0
0.541667 0 0
0.0416665 0.333332 0
0.0833331 0.333331 0
0.0416665 0.374999 0
0.083333 0.374998 0
0.0416665 0.374999 0
0.083333 0.374998 0
0.0416665 0.416666 0
0.083333 0.416664 0
0 0.375 0
0.0416665 0.374999 0
0 0.416667 0
0.0416665 0.416666 0
0 0.333333 0
0.0416665 0.333332 0
0 0.375 0
0.0416665 0.374999 0
0.666666 0.374994 0
0.708333 0.374994 0
0.666666 0.41666 0
0.708333 0.41666 0
0.666666 0.333327 0
0.708333 0.333328 0
0.666666 0.374994 0
0.708333 0.374994 0
0.708333 0.333328 0
0.749999 0.333328 0
0.708333 0.374994 0
0.749999 0.374995 0
0.708333 0.374994 0
0.749999 0.374995 0
0.708333 0.41666 0
0.749999 0.416661 0
0.666666 0.208329 0
0.666666 0.166663 0
0.708333 0.208329 0
0.708333 0.166663 0
0.708333 0.208329 0
0.708333 0.166663 0
0.75 0.20833 0
0.75 0.166664 0
0.708333 0.249995 0
0.708333 0.208329 0
0.749999 0.249996 0
0.75 0.20833 0
0.666666 0.249995 0
0.666666 0.208329 0
0.708333 0.249995 0
0.708333 0.208329 0
0.333333 0.333327 0
0.333332 0.374993 0
0.291666 0.333328 0
0.291666 0.374994 0
0.333332 0.374993 0
0.333332 0.41666 0
0.291666 0.374994 0
0.291666 0.41666 0
0.291666 0.374994 0
0.291666 0.41666 0
0.249999 0.374994 0
0.249999 0.416661 0
0.291666 0.333328 0
0.291666 0.374994 0
0.249999 0.333328 0
0.249999 0.374994 0
0.666666 0.166663 0
0.624999 0.166663 0
0.666666 0.124997 0
0.625 0.124997 0
0.624999 0.166663 0
0.583333 0.166663 0
0.625 0.124997 0
0.583333 0.124997 0
0.625 0.124997 0
0.583333 0.124997 0
0.625 0.0833312 0
0.583333 0.0833311 0
0.666666 0.124997 0
0.625 0.124997 0
0.666666 0.0833314 0
0.625 0.0833312 0
0 0.0833333 0
0 0.0416667 0
0.0416666 0.083333 0
0.0416666 0.0416665 0
0 0.0416667 0
0 0 0
0.0416666 0.0416665 0
0.0416667 0 0
0.0416666 0.0416665 0
0.0416667 0 0
0.0833333 0.0416664 0
0.0833333 0 0
0.0416666 0.083333 0
0.0416666 0.0416665 0
0.0833333 0.0833327 0
0.0833333 0.0416664 0
0.791666 0.124998 0
0.75 0.124998 0
0.791666 0.083332 0
0.75 0.0833317 0
0.833333 0.124998 0
0.791666 0.124998 0
0.833333 0.0833322 0
0.791666 0.083332 0
0.833333 0.166665 0
0.791666 0.166664 0
0.833333 0.124998 0
0.791666 0.124998 0
0.791666 0.166664 0
0.75 0.166664 0
0.791666 0.124998 0
0.75 0.124998 0
0.875 0.333331 0
0.833333 0.33333 0
0.875 0.291664 0
0.833333 0.291663 0
0.875 0.291664 0
0.833333 0.291663 0
0.875 0.249998 0
0.833333 0.249997 0
0.916666 0.291665 0
0.875 0.291664 0
0.916666 0.249998 0
0.875 0.249998 0
[...]
POINT_DATA 4416
SCALARS solution_0 double 1
LOOKUP_TABLE default
-0.0109563 -0.00669503 -0.0183846 -0.0118721 -0.0150551 -0.0109563 -0.0246291 -0.0183846 -0.00722442 -0.00508443 -0.0150551 -0.0109563 -0.00508443 -0.00279329 -0.0109563 -0.00669503 -0.155942 -0.171274 -0.134395 -0.148089 -0.140227 -0.155942 -0.121054 -0.134395 -0.152648 -0.169322 -0.140227 -0.155942 -0.169322 -0.184844 -0.155942 -0.171274 -0.12737 -0.140528 -0.0825014 -0.0931465 -0.11556 -0.12737 -0.0744977 -0.0825014 -0.148089 -0.16208 -0.11556 -0.12737 -0.16208 -0.175981 -0.12737 -0.140528 -0.171274 -0.185831 -0.148089 -0.16208 -0.184844 -0.198552 -0.171274 -0.185831 -0.198552 -0.209436 -0.185831 -0.198855 -0.185831 -0.198855 -0.16208 -0.175981 -0.189307 -0.185893 -0.201116 -0.195197 -0.201116 -0.195197 -0.209094 -0.200028 -0.198552 -0.201116 -0.209436 -0.209094 -0.184844 -0.189307 -0.198552 -0.201116 -0.043041 -0.0303672 -0.0352488 -0.0246291 -0.0561002 -0.043041 -0.0462682 -0.0352488 -0.064892 -0.0499662 -0.0561002 -0.043041 -0.0499662 -0.0354349 -0.043041 -0.0303672 -0.176291 -0.182927 -0.185893 -0.195197 -0.16232 -0.166478 -0.176291 -0.182927 -0.166478 -0.165924 -0.182927 -0.184813 -0.182927 -0.184813 -0.195197 -0.200028 -0.169322 -0.174786 -0.184844 -0.189307 -0.152648 -0.158381 -0.169322 -0.174786 -0.158381 -0.157997 -0.174786 -0.173197 -0.174786 -0.173197 -0.189307 -0.185893 -0.057124 -0.042542 -0.0448141 -0.0327485 -0.0683983 -0.0516989 -0.057124 -0.042542 -0.0516989 -0.0353424 -0.042542 -0.0285676 -0.042542 -0.0285676 -0.0327485 -0.0214283 -0.145627 -0.12748 -0.147727 -0.128051 -0.147727 -0.128051 -0.145385 -0.124591 -0.166478 -0.147727 -0.165924 -0.145385 -0.16232 -0.145627 -0.166478 -0.147727 -0.0187942 -0.0150551 -0.0303672 -0.0246291 -0.0220713 -0.0187942 -0.0354349 -0.0303672 -0.010822 -0.00915035 -0.0220713 -0.0187942 -0.00915035 -0.00722442 -0.0187942 -0.0150551 -0.0836188 -0.0643606 -0.0842155 -0.0648231 -0.0805038 -0.0620869 -0.0836188 -0.0643606 -0.0620869 -0.0442116 -0.0643606 -0.0457536 -0.0643606 -0.0457536 -0.0648231 -0.0460839 -0.195383 -0.175967 -0.173559 -0.152703 -0.208835 -0.195383 -0.191262 -0.173559 -0.216579 -0.207767 -0.208835 -0.195383 -0.207767 -0.19145 -0.195383 -0.175967 -0.121054 -0.134395 -0.0955509 -0.105052 -0.134395 -0.148089 -0.105052 -0.11556 -0.105052 -0.11556 -0.0686708 -0.0744977 -0.0955509 -0.105052 -0.0644112 -0.0686708 -0.0258196 -0.0256222 0.0241849 0.0315357 -0.0280746 -0.0258196 0.0142888 0.0241849 -0.0644112 -0.0686708 -0.0280746 -0.0258196 -0.0686708 -0.0744977 -0.0258196 -0.0256222 -0.154188 -0.16232 -0.165844 -0.176291 -0.165844 -0.176291 -0.173197 -0.185893 -0.152437 -0.165844 -0.157997 -0.173197 -0.142829 -0.154188 -0.152437 -0.165844 -0.0285987 -0.028819 -0.0457536 -0.0460839 -0.0276546 -0.0285987 -0.0442116 -0.0457536 -0.0135887 -0.0140652 -0.0276546 -0.0285987 -0.0140652 -0.0141921 -0.0285987 -0.028819 -0.136804 -0.140994 -0.119565 -0.122737 -0.128948 -0.136804 -0.113185 -0.119565 -0.142829 -0.152437 -0.128948 -0.136804 -0.152437 -0.157997 -0.136804 -0.140994 -0.0845754 -0.109531 -0.0685533 -0.0902167 -0.0685533 -0.0902167 -0.054742 -0.0731077 -0.0469727 -0.0685533 -0.0369794 -0.054742 -0.0588417 -0.0845754 -0.0469727 -0.0685533 -0.0685513 -0.0539631 -0.0585165 -0.0488992 -0.0813482 -0.0685513 -0.0674635 -0.0585165 -0.0947755 -0.0777871 -0.0813482 -0.0685513 -0.0777871 -0.0577824 -0.0685513 -0.0539631 -0.142829 -0.128948 -0.13028 -0.118281 -0.128948 -0.113185 -0.118281 -0.104233 -0.118281 -0.104233 -0.105554 -0.0932961 -0.13028 -0.118281 -0.11572 -0.105554 -0.106609 -0.0456501 -0.0931465 -0.0347941 -0.1224 -0.0612788 -0.106609 -0.0456501 -0.0612788 0.0149259 -0.0456501 0.0277473 -0.0456501 0.0277473 -0.0347941 0.0343743 -0.00127277 -0.000604517 -0.00508443 -0.00279329 -0.00188011 -0.00127277 -0.00722442 -0.00508443 0 0 -0.00188011 -0.00127277 0 0 -0.00127277 -0.000604517 -0.0259139 0 -0.0243702 0 -0.0482812 -0.0259139 -0.0455795 -0.0243702 -0.0491424 -0.0263909 -0.0482812 -0.0259139 -0.0263909 0 -0.0259139 0 -0.00353815 -0.0132484 -0.00371771 -0.0139206 -0.00371771 -0.0139206 -0.00378547 -0.0141921 0 -0.00371771 0 -0.00378547 0 -0.00353815 0 -0.00371771 -0.170801 -0.153872 -0.19145 -0.175967 -0.148474 -0.131367 -0.170801 -0.153872 -0.131367 -0.109531 -0.153872 -0.130693 -0.153872 -0.130693 -0.175967 -0.152703 -0.0861448 -0.0683983 -0.0729261 -0.057124 -0.0729261 -0.057124 -0.0581009 -0.0448141 -0.0904562 -0.0729261 -0.0731077 -0.0581009 -0.105412 -0.0861448 -0.0904562 -0.0729261 -0.113185 -0.119565 -0.0961276 -0.101255 -0.119565 -0.122737 -0.101255 -0.103673 -0.101255 -0.103673 -0.0823787 -0.0842155 -0.0961276 -0.101255 -0.0783386 -0.0823787 -0.0683983 -0.0777781 -0.0516989 -0.0594777 -0.0777781 -0.0846324 -0.0594777 -0.0653058 -0.0594777 -0.0653058 -0.0411667 -0.0455795 -0.0516989 -0.0594777 -0.0353424 -0.0411667 0 0 -0.000604517 0.000246916 0 0 0.000246916 0 0.000246916 0 -0.000708018 0 -0.000604517 0.000246916 -0.00279329 -0.000708018 -0.0231558 -0.0327485 -0.0145724 -0.0214283 -0.0145932 -0.0231558 -0.00862556 -0.0145724 -0.0211674 -0.0324802 -0.0145932 -0.0231558 -0.0324802 -0.0448141 -0.0231558 -0.0327485 -0.0351032 -0.0588417 -0.0276302 -0.0469727 -0.0276302 -0.0469727 -0.0214618 -0.0369794 -0.0124995 -0.0276302 -0.00959033 -0.0214618 -0.0160843 -0.0351032 -0.0124995 -0.0276302 -0.0724024 -0.0558246 -0.064892 -0.0499662 -0.0783386 -0.0603979 -0.0724024 -0.0558246 -0.0603979 -0.0429689 -0.0558246 -0.0396856 -0.0558246 -0.0396856 -0.0499662 -0.0354349 0.000399021 0.000133754 0 0 0 0.000399021 0 0 0 -0.000136233 0 0.000399021 -0.000136233 -0.00126609 0.000399021 0.000133754 -0.054742 -0.0731077 -0.0428613 -0.0581009 -0.0428613 -0.0581009 -0.0324802 -0.0448141 -0.0285126 -0.0428613 -0.0211674 -0.0324802 -0.0369794 -0.054742 -0.0285126 -0.0428613 -0.102782 -0.122697 -0.130693 -0.152703 -0.0845754 -0.102782 -0.109531 -0.130693 -0.0588417 -0.0727756 -0.0845754 -0.102782 -0.0727756 -0.0886872 -0.102782 -0.122697 -0.012202 -0.010822 -0.0247977 -0.0220713 -0.0247977 -0.0220713 -0.0396856 -0.0354349 -0.0268834 -0.0247977 -0.0429689 -0.0396856 -0.0132484 -0.012202 -0.0268834 -0.0247977 -0.0634625 -0.0648231 -0.0451399 -0.0460839 -0.0603979 -0.0634625 -0.0429689 -0.0451399 -0.0783386 -0.0823787 -0.0603979 -0.0634625 -0.0823787 -0.0842155 -0.0634625 -0.0648231 -0.0200238 0.00377207 -0.0290768 -0.0153316 -0.00893185 0.0247914 -0.0200238 0.00377207 -0.0139206 -0.028244 -0.0141921 -0.028819 -0.0132484 -0.0268834 -0.0139206 -0.028244 -0.0268834 -0.0429689 -0.028244 -0.0451399 -0.028244 -0.0451399 -0.028819 -0.0460839 -0.0488992 -0.039197 -0.0420692 -0.0377224 -0.039197 -0.0290768 -0.0377224 -0.0346228 -0.0377224 -0.0346228 -0.0328593 -0.035116 -0.0420692 -0.0377224 -0.0332928 -0.0328593 -0.207767 -0.211841 -0.19145 -0.199173 -0.216579 -0.216062 -0.207767 -0.211841 -0.216062 -0.209436 -0.211841 -0.209094 -0.211841 -0.209094 -0.199173 -0.200028 -0.00325393 -0.00287613 -0.012202 -0.010822 -0.00353815 -0.00325393 -0.0132484 -0.012202 0 0 -0.00353815 -0.00325393 0 0 -0.00325393 -0.00287613 -0.0346228 -0.0304658 -0.035116 -0.03917 -0.0290768 -0.0153316 -0.0346228 -0.0304658 -0.0989927 -0.0805038 -0.102994 -0.0836188 -0.102994 -0.0836188 -0.103673 -0.0842155 -0.122117 -0.102994 -0.122737 -0.103673 -0.117288 -0.0989927 -0.122117 -0.102994 -0.00287613 -0.00241561 -0.010822 -0.00915035 0 0 -0.00287613 -0.00241561 0 0 -0.00241561 -0.00188011 -0.00241561 -0.00188011 -0.00915035 -0.00722442 -0.0961276 -0.0783386 -0.0887424 -0.0724024 -0.0887424 -0.0724024 -0.079542 -0.064892 -0.104233 -0.0887424 -0.0932961 -0.079542 -0.113185 -0.0961276 -0.104233 -0.0887424 -0.0968104 -0.104286 -0.0777781 -0.0846324 -0.0861448 -0.0968104 -0.0683983 -0.0777781 -0.105412 -0.116981 -0.0861448 -0.0968104 -0.116981 -0.124591 -0.0968104 -0.104286 -0.138997 -0.15391 -0.0811147 -0.103006 -0.0612788 -0.0811147 0.0149259 -0.00590287 -0.1224 -0.138997 -0.0612788 -0.0811147 -0.011707 -0.0231456 -0.0121276 -0.0227723 -0.0121264 -0.0244883 -0.011707 -0.0231456 -0.0244883 -0.0385543 -0.0231456 -0.0354647 -0.0231456 -0.0354647 -0.0227723 -0.0332928 0.00289215 0.0461608 -0.00893185 0.0247914 0.0142888 0.0666118 0.00289215 0.0461608 -0.128051 -0.108254 -0.124591 -0.104286 -0.12748 -0.108675 -0.128051 -0.108254 -0.108675 -0.0895187 -0.108254 -0.0885874 -0.108254 -0.0885874 -0.104286 -0.0846324 0 -0.00307342 0 -0.00315165 0 -0.00322115 0 -0.00307342 -0.00322115 -0.0121264 -0.00307342 -0.011707 -0.00307342 -0.011707 -0.00315165 -0.0121276 -0.162328 -0.191262 -0.143238 -0.173559 -0.143238 -0.173559 -0.122697 -0.152703 -0.106107 -0.143238 -0.0886872 -0.122697 0 0 -0.00360638 -0.00374309 0 0 -0.00374309 -0.00378547 -0.00374309 -0.00378547 -0.0140652 -0.0141921 -0.00360638 -0.00374309 -0.0135887 -0.0140652 -0.0353424 -0.0184763 -0.0285676 -0.0145873 -0.0184763 0 -0.0145873 0 -0.0145873 0 -0.0105252 0 -0.0285676 -0.0145873 -0.0214283 -0.0105252 -0.00862556 -0.0145724 -0.00345715 -0.00668827 -0.0145724 -0.0214283 -0.00668827 -0.0105252 -0.00668827 -0.0105252 0 0 -0.00345715 -0.00668827 0 0 -0.0455814 -0.0415609 -0.0243238 -0.0220342 -0.0415609 -0.0364332 -0.0220342 -0.0191386 -0.0220342 -0.0191386 0 0 -0.0243238 -0.0220342 0 0 -0.044131 -0.0548086 -0.0727756 -0.0886872 -0.0351032 -0.044131 -0.0588417 -0.0727756 -0.0160843 -0.0205188 -0.0351032 -0.044131 -0.0205188 -0.0259345 -0.044131 -0.0548086 0.0142888 0.0241849 0.0666118 0.0850248 0.0241849 0.0315357 0.0850248 0.10032 -0.168558 -0.180063 -0.1224 -0.138997 -0.19919 -0.204266 -0.168558 -0.180063 -0.204266 -0.200841 -0.180063 -0.185837 -0.180063 -0.185837 -0.138997 -0.15391 -0.0688998 -0.0561002 -0.0570898 -0.0462682 -0.0808351 -0.0688998 -0.0671497 -0.0570898 -0.0932961 -0.079542 -0.0808351 -0.0688998 -0.079542 -0.064892 -0.0688998 -0.0561002 -0.01015 -0.0398261 -0.00825656 -0.0324867 -0.00825656 -0.0324867 -0.00651229 -0.0259345 0 -0.00825656 0 -0.00651229 0 -0.01015 0 -0.00825656 -0.0184763 -0.0218313 0 0 -0.0353424 -0.0411667 -0.0184763 -0.0218313 -0.0411667 -0.0455795 -0.0218313 -0.0243702 -0.0218313 -0.0243702 0 0 -0.135224 -0.117288 -0.140686 -0.122117 -0.140686 -0.122117 -0.140994 -0.122737 -0.158381 -0.140686 -0.157997 -0.140994 -0.152648 -0.135224 -0.158381 -0.140686 -0.209085 -0.188894 -0.198855 -0.175981 -0.216062 -0.209085 -0.209436 -0.198855 -0.216579 -0.214632 -0.216062 -0.209085 -0.214632 -0.19919 -0.209085 -0.188894 -0.00113231 -0.00345715 0 0 0.000133754 -0.00113231 0 0 -0.00126609 -0.00409444 0.000133754 -0.00113231 -0.00409444 -0.00862556 -0.00113231 -0.00345715 -0.0698638 -0.0491424 -0.0688183 -0.0482812 -0.0688183 -0.0482812 -0.0653058 -0.0455795 -0.0885874 -0.0688183 -0.0846324 -0.0653058 -0.0895187 -0.0698638 -0.0885874 -0.0688183 -0.00360638 -0.0135887 -0.00341133 -0.0128787 -0.00341133 -0.0128787 -0.00322115 -0.0121264 0 -0.00341133 0 -0.00322115 0 -0.00360638 0 -0.00341133 -0.0998008 -0.0828536 -0.105739 -0.0875194 -0.105739 -0.0875194 -0.108675 -0.0895187 -0.123212 -0.105739 -0.12748 -0.108675 -0.11572 -0.0998008 -0.123212 -0.105739 -0.160038 -0.18102 -0.165924 -0.184813 -0.148474 -0.170801 -0.160038 -0.18102 -0.170801 -0.19145 -0.18102 -0.199173 -0.18102 -0.199173 -0.184813 -0.200028 -0.152648 -0.140227 -0.135224 -0.124279 -0.140227 -0.121054 -0.124279 -0.107927 -0.124279 -0.107927 -0.108109 -0.0947755 -0.135224 -0.124279 -0.117288 -0.108109 -0.0071671 -0.0162909 -0.00504826 -0.0118053 -0.00959033 -0.0214618 -0.0071671 -0.0162909 -0.0214618 -0.0369794 -0.0162909 -0.0285126 -0.0162909 -0.0285126 -0.0118053 -0.0211674 -0.138259 -0.145385 -0.116981 -0.124591 -0.12632 -0.138259 -0.105412 -0.116981 -0.148474 -0.160038 -0.12632 -0.138259 -0.160038 -0.165924 -0.138259 -0.145385 -0.0955509 -0.0644112 -0.086626 -0.0610242 -0.086626 -0.0610242 -0.0777871 -0.0577824 -0.107927 -0.086626 -0.0947755 -0.0777871 -0.121054 -0.0955509 -0.107927 -0.086626 -0.214632 -0.212949 -0.19919 -0.204266 -0.216579 -0.208835 -0.214632 -0.212949 -0.208835 -0.191262 -0.212949 -0.201579 -0.212949 -0.201579 -0.204266 -0.200841 -0.154188 -0.139607 -0.16232 -0.145627 -0.142829 -0.13028 -0.154188 -0.139607 -0.13028 -0.11572 -0.139607 -0.123212 -0.139607 -0.123212 -0.145627 -0.12748 -0.0585165 -0.0488992 -0.0474637 -0.0420692 -0.0474637 -0.0420692 -0.0354647 -0.0332928 -0.0531057 -0.0474637 -0.0385543 -0.0354647 -0.0674635 -0.0585165 -0.0531057 -0.0474637 -0.0280746 0.0142888 -0.0314836 0.00289215 -0.0314836 0.00289215 -0.0351162 -0.00893185 -0.0610242 -0.0314836 -0.0577824 -0.0351162 -0.0644112 -0.0280746 -0.0610242 -0.0314836 -0.0324867 -0.0670437 -0.0259345 -0.0548086 -0.0398261 -0.0801794 -0.0324867 -0.0670437 -0.0670437 -0.106107 -0.0548086 -0.0886872 -0.19919 -0.168558 -0.188894 -0.15463 -0.168558 -0.1224 -0.15463 -0.106609 -0.15463 -0.106609 -0.140528 -0.0931465 -0.188894 -0.15463 -0.175981 -0.140528 -0.12632 -0.105412 -0.109983 -0.0904562 -0.109983 -0.0904562 -0.0902167 -0.0731077 -0.131367 -0.109983 -0.109531 -0.0902167 -0.148474 -0.12632 -0.131367 -0.109983 -0.0006374 -0.00309455 -0.000136233 -0.00126609 0 -0.0006374 0 -0.000136233 0 -0.00114802 0 -0.0006374 -0.00114802 -0.00504826 -0.0006374 -0.00309455 -0.0744977 -0.0825014 -0.0256222 -0.0283559 -0.0825014 -0.0931465 -0.0283559 -0.0347941 -0.0283559 -0.0347941 0.0352975 0.0343743 -0.0256222 -0.0283559 0.0315357 0.0352975 -0.0351162 -0.00893185 -0.0380137 -0.0200238 -0.0380137 -0.0200238 -0.039197 -0.0290768 -0.0539631 -0.0380137 -0.0488992 -0.039197 -0.0577824 -0.0351162 -0.0539631 -0.0380137 -0.0581972 -0.0531057 -0.0416744 -0.0385543 -0.0620869 -0.0581972 -0.0442116 -0.0416744 -0.0805038 -0.0749946 -0.0620869 -0.0581972 -0.0749946 -0.0674635 -0.0581972 -0.0531057 -0.117288 -0.108109 -0.0989927 -0.0916798 -0.108109 -0.0947755 -0.0916798 -0.0813482 -0.0916798 -0.0813482 -0.0749946 -0.0674635 -0.0989927 -0.0916798 -0.0805038 -0.0749946 -0.00775853 -0.0145932 -0.00409444 -0.00862556 -0.00309455 -0.00775853 -0.00126609 -0.00409444 -0.00504826 -0.0118053 -0.00309455 -0.00775853 -0.0118053 -0.0211674 -0.00775853 -0.0145932 -0.105554 -0.0932961 -0.0913232 -0.0808351 -0.0913232 -0.0808351 -0.0759083 -0.0671497 -0.0998008 -0.0913232 -0.0828536 -0.0759083 -0.11572 -0.105554 -0.0998008 -0.0913232 -0.0455814 -0.0243238 -0.0481908 -0.0258269 -0.0243238 0 -0.0258269 0 -0.0258269 0 -0.0263909 0 -0.0481908 -0.0258269 -0.0491424 -0.0263909 0.0315357 0.0352975 0.10032 0.111356 0.0352975 0.0343743 0.111356 0.11701 -0.00300692 -0.0124995 -0.00228246 -0.00959033 0 -0.00300692 0 -0.00228246 0 -0.00391294 0 -0.00300692 -0.00391294 -0.0160843 -0.00300692 -0.0124995 -0.00505548 -0.00651229 -0.0205188 -0.0259345 -0.00391294 -0.00505548 -0.0160843 -0.0205188 0 0 -0.00391294 -0.00505548 0 0 -0.00505548 -0.00651229 -0.0178614 -0.0118721 -0.00878597 -0.00549721 -0.00878597 -0.00549721 0 0 -0.0123086 -0.00878597 0 0 -0.0242177 -0.0178614 -0.0123086 -0.00878597 -0.0364332 -0.0305338 -0.0191386 -0.0158301 -0.0305338 -0.0242177 -0.0158301 -0.0123086 -0.0158301 -0.0123086 0 0 -0.0191386 -0.0158301 0 0 0.0277473 0.115339 0.0343743 0.11701 -0.0671497 -0.0570898 -0.0523649 -0.0442788 -0.0570898 -0.0462682 -0.0442788 -0.0355875 -0.0442788 -0.0355875 -0.0305338 -0.0242177 -0.0523649 -0.0442788 -0.0364332 -0.0305338 -0.0759083 -0.0671497 -0.0593797 -0.0523649 -0.0593797 -0.0523649 -0.0415609 -0.0364332 -0.0648845 -0.0593797 -0.0455814 -0.0415609 -0.0828536 -0.0759083 -0.0648845 -0.0593797 -0.0128787 -0.026171 -0.0121264 -0.0244883 -0.0135887 -0.0276546 -0.0128787 -0.026171 -0.0276546 -0.0442116 -0.026171 -0.0416744 -0.026171 -0.0416744 -0.0244883 -0.0385543 -0.0875194 -0.0684853 -0.0895187 -0.0698638 -0.0828536 -0.0648845 -0.0875194 -0.0684853 -0.0648845 -0.0455814 -0.0684853 -0.0481908 -0.0684853 -0.0481908 -0.0698638 -0.0491424 -0.00279329 -0.000708018 -0.00669503 -0.00270923 -0.000708018 0 -0.00270923 0 -0.00270923 0 -0.00549721 0 -0.00669503 -0.00270923 -0.0118721 -0.00549721 -0.00228246 -0.00959033 -0.00168128 -0.0071671 -0.00168128 -0.0071671 -0.00114802 -0.00504826 0 -0.00168128 0 -0.00114802 0 -0.00228246 0 -0.00168128 -0.0121276 -0.0227723 -0.0143728 -0.0247224 -0.0227723 -0.0332928 -0.0247224 -0.0328593 -0.0247224 -0.0328593 -0.0297657 -0.035116 -0.0297657 -0.035116 -0.0382472 -0.03917 -0.0267817 -0.0183846 -0.0178614 -0.0118721 -0.0355875 -0.0267817 -0.0242177 -0.0178614 -0.0462682 -0.0352488 -0.0355875 -0.0267817 -0.0352488 -0.0246291 -0.0267817 -0.0183846 0.124162 0.10105 0.0767768 0.0571426 0.10105 0.0776338 0.0571426 0.0376651 0.0767768 0.0571426 0.0439023 0.0277908 0.0571426 0.0376651 0.0277908 0.0121086 0.168779 0.146784 0.115587 0.0963192 0.146784 0.124162 0.0963192 0.0767768 0.115587 0.0963192 0.0765305 0.0602297 0.0963192 0.0767768 0.0602297 0.0439023 0.338314 0.313597 0.241228 0.21719 0.313597 0.287435 0.21719 0.192111 0.241228 0.21719 0.168779 0.146784 0.21719 0.192111 0.146784 0.124162 0.287435 0.259769 0.192111 0.166043 0.259769 0.230546 0.166043 0.139075 0.192111 0.166043 0.124162 0.10105 0.166043 0.139075 0.10105 0.0776338 -0.0651837 -0.0387253 -0.0495149 -0.0146 -0.0387253 -0.00435806 -0.0146 0.0286805 -0.0495149 -0.0146 -0.028681 0.0130777 -0.0146 0.0286805 0.0130777 0.0630439 -0.0999619 -0.0852216 -0.0989727 -0.0773087 -0.0852216 -0.0651837 -0.0773087 -0.0495149 -0.0989727 -0.0773087 -0.091239 -0.063191 -0.0773087 -0.0495149 -0.063191 -0.028681 -0.0764643 -0.0736013 -0.0925497 -0.0844199 -0.0736013 -0.0683023 -0.0844199 -0.0723047 -0.0925497 -0.0844199 -0.0999619 -0.0852216 -0.0844199 -0.0723047 -0.0852216 -0.0651837 -0.0683023 -0.0597765 -0.0723047 -0.0551342 -0.0597765 -0.0468097 -0.0551342 -0.0313877 -0.0723047 -0.0551342 -0.0651837 -0.0387253 -0.0551342 -0.0313877 -0.0387253 -0.00435806 0.682026 0.694359 0.837867 0.844639 0.694359 0.705585 0.844639 0.850735 0.837867 0.844639 1 1 0.844639 0.850735 1 1 0.423569 0.441575 0.542347 0.55844 0.441575 0.458239 0.55844 0.573221 0.542347 0.55844 0.682026 0.694359 0.55844 0.573221 0.694359 0.705585 0.458239 0.473525 0.573221 0.586675 0.473525 0.487374 0.586675 0.598767 0.573221 0.586675 0.705585 0.715701 0.586675 0.598767 0.715701 0.724689 0.705585 0.715701 0.850735 0.856156 0.715701 0.724689 0.856156 0.860891 0.850735 0.856156 1 1 0.856156 0.860891 1 1 0.230546 0.199731 0.139075 0.111351 0.199731 0.167338 0.111351 0.0831177 0.139075 0.111351 0.0776338 0.054179 0.111351 0.0831177 0.054179 0.0310577 0.167338 0.133477 0.0831177 0.0547723 0.133477 0.0984353 0.0547723 0.0269533 0.0831177 0.0547723 0.0310577 0.00881102 0.0547723 0.0269533 0.00881102 -0.0118019 0.0310577 0.00881102 0.000531752 -0.0161521 0.00881102 -0.0118019 -0.0161521 -0.0306465 0.000531752 -0.0161521 -0.0164816 -0.028467 -0.0161521 -0.0306465 -0.028467 -0.038217 0.0776338 0.054179 0.0376651 0.0186515 0.054179 0.0310577 0.0186515 0.000531752 0.0376651 0.0186515 0.0121086 -0.00275667 0.0186515 0.000531752 -0.00275667 -0.0164816 -0.0385635 -0.0340569 -0.0439205 -0.0486409 -0.0340569 -0.0273418 -0.0486409 -0.0436308 -0.0439205 -0.0486409 -0.0302001 -0.0504279 -0.0486409 -0.0436308 -0.0504279 -0.0520639 0 0 -0.0156999 -0.0118447 0 0 -0.0118447 -0.00875475 -0.0156999 -0.0118447 -0.0385635 -0.0340569 -0.0118447 -0.00875475 -0.0340569 -0.0273418 0 0 -0.00875475 -0.00645009 0 0 -0.00645009 -0.00477743 -0.00875475 -0.00645009 -0.0273418 -0.021269 -0.00645009 -0.00477743 -0.021269 -0.0163682 -0.0273418 -0.021269 -0.0436308 -0.0362825 -0.021269 -0.0163682 -0.0362825 -0.029239 -0.0436308 -0.0362825 -0.0520639 -0.0468241 -0.0362825 -0.029239 -0.0468241 -0.0397447 0.210487 0.190043 0.152706 0.134424 0.190043 0.168779 0.134424 0.115587 0.152706 0.134424 0.108414 0.0926438 0.134424 0.115587 0.0926438 0.0765305 0.248617 0.230037 0.187155 0.170319 0.230037 0.210487 0.170319 0.152706 0.187155 0.170319 0.138386 0.123697 0.170319 0.152706 0.123697 0.108414 0.423569 0.404243 0.326327 0.306769 0.404243 0.383603 0.306769 0.286045 0.326327 0.306769 0.248617 0.230037 0.306769 0.286045 0.230037 0.210487 0.383603 0.361635 0.286045 0.264189 0.361635 0.338314 0.264189 0.241228 0.286045 0.264189 0.210487 0.190043 0.264189 0.241228 0.190043 0.168779 -0.091239 -0.063191 -0.0789263 -0.045