# vtk DataFile Version 3.0
#This file was generated by the deal.II library on 2020/11/19 at 14:48:11
ASCII
DATASET UNSTRUCTURED_GRID

POINTS 2304 double
0.125 0.124999 0
0.125 0.0833324 0
0.166666 0.124998 0
0.166667 0.0833322 0
0.125 0.166665 0
0.125 0.124999 0
0.166666 0.166664 0
0.166666 0.124998 0
0.0833332 0.166666 0
0.0833332 0.124999 0
0.125 0.166665 0
0.125 0.124999 0
0.0833332 0.124999 0
0.0833333 0.0833327 0
0.125 0.124999 0
0.125 0.0833324 0
0.458332 0.541659 0
0.499999 0.541659 0
0.458332 0.583326 0
0.499999 0.583326 0
0.416666 0.541659 0
0.458332 0.541659 0
0.416666 0.583326 0
0.458332 0.583326 0
0.416666 0.499992 0
0.458332 0.499992 0
0.416666 0.541659 0
0.458332 0.541659 0
0.458332 0.499992 0
0.499999 0.499992 0
0.458332 0.541659 0
0.499999 0.541659 0
0.541666 0.624993 0
0.583332 0.624993 0
0.541666 0.66666 0
0.583332 0.66666 0
0.499999 0.624993 0
0.541666 0.624993 0
0.499999 0.66666 0
0.541666 0.66666 0
0.499999 0.583326 0
0.541666 0.583326 0
0.499999 0.624993 0
0.541666 0.624993 0
0.541666 0.583326 0
0.583332 0.583326 0
0.541666 0.624993 0
0.583332 0.624993 0
0.499999 0.541659 0
0.541666 0.541659 0
0.499999 0.583326 0
0.541666 0.583326 0
0.499999 0.499992 0
0.541666 0.499992 0
0.499999 0.541659 0
0.541666 0.541659 0
0.541666 0.499992 0
0.583332 0.499992 0
0.541666 0.541659 0
0.583332 0.541659 0
0.541666 0.541659 0
0.583332 0.541659 0
0.541666 0.583326 0
0.583332 0.583326 0
0.499999 0.458326 0
0.499999 0.416659 0
0.541666 0.458326 0
0.541666 0.416659 0
0.541666 0.458326 0
0.541666 0.416659 0
0.583332 0.458326 0
0.583332 0.416659 0
0.541666 0.499992 0
0.541666 0.458326 0
0.583332 0.499992 0
0.583332 0.458326 0
0.499999 0.499992 0
0.499999 0.458326 0
0.541666 0.499992 0
0.541666 0.458326 0
0.208333 0.20833 0
0.166666 0.208331 0
0.208333 0.166664 0
0.166666 0.166664 0
0.25 0.20833 0
0.208333 0.20833 0
0.25 0.166664 0
0.208333 0.166664 0
0.249999 0.249996 0
0.208333 0.249996 0
0.25 0.20833 0
0.208333 0.20833 0
0.208333 0.249996 0
0.166666 0.249997 0
0.208333 0.20833 0
0.166666 0.208331 0
0.291666 0.874997 0
0.25 0.874998 0
0.291666 0.83333 0
0.25 0.83333 0
0.333333 0.874997 0
0.291666 0.874997 0
0.333333 0.83333 0
0.291666 0.83333 0
0.333333 0.916665 0
0.291666 0.916665 0
0.333333 0.874997 0
0.291666 0.874997 0
0.291666 0.916665 0
0.25 0.916665 0
0.291666 0.874997 0
0.25 0.874998 0
0.499999 0.374993 0
0.541666 0.374993 0
0.499999 0.416659 0
0.541666 0.416659 0
0.499999 0.333326 0
0.541666 0.333326 0
0.499999 0.374993 0
0.541666 0.374993 0
0.541666 0.333326 0
0.583332 0.333327 0
0.541666 0.374993 0
0.583332 0.374993 0
0.541666 0.374993 0
0.583332 0.374993 0
0.541666 0.416659 0
0.583332 0.416659 0
0.458332 0.499992 0
0.458332 0.458326 0
0.499999 0.499992 0
0.499999 0.458326 0
0.416666 0.499992 0
0.416666 0.458326 0
0.458332 0.499992 0
0.458332 0.458326 0
0.416666 0.458326 0
0.416666 0.416659 0
0.458332 0.458326 0
0.458332 0.416659 0
0.458332 0.458326 0
0.458332 0.416659 0
0.499999 0.458326 0
0.499999 0.416659 0
0.708333 0.166663 0
0.708333 0.124997 0
0.75 0.166664 0
0.75 0.124998 0
0.666666 0.166663 0
0.666666 0.124997 0
0.708333 0.166663 0
0.708333 0.124997 0
0.666666 0.124997 0
0.666666 0.0833314 0
0.708333 0.124997 0
0.708333 0.0833316 0
0.708333 0.124997 0
0.708333 0.0833316 0
0.75 0.124998 0
0.75 0.0833317 0
0.499999 0.29166 0
0.499999 0.249994 0
0.541666 0.29166 0
0.541666 0.249994 0
0.541666 0.29166 0
0.541666 0.249994 0
0.583333 0.29166 0
0.583333 0.249994 0
0.541666 0.333326 0
0.541666 0.29166 0
0.583332 0.333327 0
0.583333 0.29166 0
0.499999 0.333326 0
0.499999 0.29166 0
0.541666 0.333326 0
0.541666 0.29166 0
0.125 0.208331 0
0.125 0.166665 0
0.166666 0.208331 0
0.166666 0.166664 0
0.125 0.249998 0
0.125 0.208331 0
0.166666 0.249997 0
0.166666 0.208331 0
0.0833331 0.249998 0
0.0833331 0.208332 0
0.125 0.249998 0
0.125 0.208331 0
0.0833331 0.208332 0
0.0833332 0.166666 0
0.125 0.208331 0
0.125 0.166665 0
0.875 0.791665 0
0.875 0.833332 0
0.833333 0.791664 0
0.833333 0.833331 0
0.875 0.749998 0
0.875 0.791665 0
0.833333 0.749997 0
0.833333 0.791664 0
0.916666 0.749998 0
0.916666 0.791665 0
0.875 0.749998 0
0.875 0.791665 0
0.916666 0.791665 0
0.916667 0.833332 0
0.875 0.791665 0
0.875 0.833332 0
0.249999 0.458327 0
0.208333 0.458328 0
0.249999 0.416661 0
0.208333 0.416662 0
0.249999 0.499994 0
0.208333 0.499995 0
0.249999 0.458327 0
0.208333 0.458328 0
0.208333 0.499995 0
0.166666 0.499996 0
0.208333 0.458328 0
0.166666 0.458329 0
0.208333 0.458328 0
0.166666 0.458329 0
0.208333 0.416662 0
0.166666 0.416662 0
0.708333 0.458327 0
0.708333 0.41666 0
0.749999 0.458328 0
0.749999 0.416661 0
0.708332 0.499994 0
0.708333 0.458327 0
0.749999 0.499994 0
0.749999 0.458328 0
0.666666 0.499993 0
0.666666 0.458327 0
0.708332 0.499994 0
0.708333 0.458327 0
0.666666 0.458327 0
0.666666 0.41666 0
0.708333 0.458327 0
0.708333 0.41666 0
0.416666 0.583326 0
0.458332 0.583326 0
0.416666 0.624993 0
0.458332 0.624993 0
0.458332 0.583326 0
0.499999 0.583326 0
0.458332 0.624993 0
0.499999 0.624993 0
0.458332 0.624993 0
0.499999 0.624993 0
0.458332 0.66666 0
0.499999 0.66666 0
0.416666 0.624993 0
0.458332 0.624993 0
0.416666 0.66666 0
0.458332 0.66666 0
0.458333 0.708327 0
0.499999 0.708327 0
0.458333 0.749994 0
0.499999 0.749994 0
0.416666 0.708327 0
0.458333 0.708327 0
0.416666 0.749994 0
0.458333 0.749994 0
0.416666 0.66666 0
0.458332 0.66666 0
0.416666 0.708327 0
0.458333 0.708327 0
0.458332 0.66666 0
0.499999 0.66666 0
0.458333 0.708327 0
0.499999 0.708327 0
0.416667 0.958332 0
0.458333 0.958332 0
0.416667 1 0
0.458333 1 0
0.416666 0.916665 0
0.458333 0.916665 0
0.416667 0.958332 0
0.458333 0.958332 0
0.458333 0.916665 0
0.5 0.916665 0
0.458333 0.958332 0
0.5 0.958332 0
0.458333 0.958332 0
0.5 0.958332 0
0.458333 1 0
0.5 1 0
0.25 0.916665 0
0.208333 0.916665 0
0.25 0.874998 0
0.208333 0.874998 0
0.208333 0.916665 0
0.166667 0.916666 0
0.208333 0.874998 0
0.166666 0.874998 0
0.208333 0.874998 0
0.166666 0.874998 0
0.208333 0.833331 0
0.166666 0.833331 0
0.25 0.874998 0
0.208333 0.874998 0
0.25 0.83333 0
0.208333 0.833331 0
0.0416666 0.916666 0
0.0416666 0.875 0
0.0833333 0.916666 0
0.0833332 0.874999 0
0 0.916667 0
0 0.875 0
0.0416666 0.916666 0
0.0416666 0.875 0
0 0.875 0
0 0.833333 0
0.0416666 0.875 0
0.0416666 0.833333 0
0.0416666 0.875 0
0.0416666 0.833333 0
0.0833332 0.874999 0
0.0833332 0.833332 0
0.458332 0.333326 0
0.499999 0.333326 0
0.458332 0.374993 0
0.499999 0.374993 0
0.458332 0.374993 0
0.499999 0.374993 0
0.458332 0.416659 0
0.499999 0.416659 0
0.416666 0.374993 0
0.458332 0.374993 0
0.416666 0.416659 0
0.458332 0.416659 0
0.416666 0.333327 0
0.458332 0.333326 0
0.416666 0.374993 0
0.458332 0.374993 0
0.125 0.45833 0
0.125 0.416663 0
0.166666 0.458329 0
0.166666 0.416662 0
0.125 0.499997 0
0.125 0.45833 0
0.166666 0.499996 0
0.166666 0.458329 0
0.083333 0.499998 0
0.083333 0.458331 0
0.125 0.499997 0
0.125 0.45833 0
0.083333 0.458331 0
0.083333 0.416664 0
0.125 0.45833 0
0.125 0.416663 0
0.375 0.874997 0
0.333333 0.874997 0
0.374999 0.83333 0
0.333333 0.83333 0
0.416666 0.874997 0
0.375 0.874997 0
0.416666 0.833329 0
0.374999 0.83333 0
0.416666 0.916665 0
0.375 0.916665 0
0.416666 0.874997 0
0.375 0.874997 0
0.375 0.916665 0
0.333333 0.916665 0
0.375 0.874997 0
0.333333 0.874997 0
0.374999 0.374993 0
0.374999 0.416659 0
0.333332 0.374993 0
0.333332 0.41666 0
0.374999 0.333327 0
0.374999 0.374993 0
0.333333 0.333327 0
0.333332 0.374993 0
0.416666 0.333327 0
0.416666 0.374993 0
0.374999 0.333327 0
0.374999 0.374993 0
0.416666 0.374993 0
0.416666 0.416659 0
0.374999 0.374993 0
0.374999 0.416659 0
0.791666 0.333329 0
0.749999 0.333328 0
0.791666 0.291663 0
0.749999 0.291662 0
0.791666 0.291663 0
0.749999 0.291662 0
0.791666 0.249996 0
0.749999 0.249996 0
0.833333 0.291663 0
0.791666 0.291663 0
0.833333 0.249997 0
0.791666 0.249996 0
0.833333 0.33333 0
0.791666 0.333329 0
0.833333 0.291663 0
0.791666 0.291663 0
0.833333 0.749997 0
0.833333 0.791664 0
0.791666 0.749997 0
0.791666 0.791664 0
0.833333 0.791664 0
0.833333 0.833331 0
0.791666 0.791664 0
0.791666 0.833331 0
0.791666 0.791664 0
0.791666 0.833331 0
0.75 0.791663 0
0.75 0.83333 0
0.791666 0.749997 0
0.791666 0.791664 0
0.749999 0.749996 0
0.75 0.791663 0
0.291666 0.624994 0
0.291666 0.666661 0
0.249999 0.624995 0
0.249999 0.666662 0
0.291666 0.583327 0
0.291666 0.624994 0
0.249999 0.583328 0
0.249999 0.624995 0
0.333332 0.583326 0
0.333332 0.624994 0
0.291666 0.583327 0
0.291666 0.624994 0
0.333332 0.624994 0
0.333333 0.666661 0
0.291666 0.624994 0
0.291666 0.666661 0
0.416666 0.333327 0
0.374999 0.333327 0
0.416666 0.29166 0
0.374999 0.291661 0
0.374999 0.333327 0
0.333333 0.333327 0
0.374999 0.291661 0
0.333333 0.291661 0
0.374999 0.291661 0
0.333333 0.291661 0
0.374999 0.249995 0
0.333333 0.249995 0
0.416666 0.29166 0
0.374999 0.291661 0
0.416666 0.249994 0
0.374999 0.249995 0
0.624999 0.66666 0
0.624999 0.708328 0
0.583332 0.66666 0
0.583333 0.708327 0
0.666666 0.666661 0
0.666666 0.708328 0
0.624999 0.66666 0
0.624999 0.708328 0
0.666666 0.708328 0
0.666666 0.749995 0
0.624999 0.708328 0
0.624999 0.749995 0
0.624999 0.708328 0
0.624999 0.749995 0
0.583333 0.708327 0
0.583333 0.749995 0
0.875 0.541664 0
0.875 0.58333 0
0.833333 0.541663 0
0.833333 0.583329 0
0.875 0.499997 0
0.875 0.541664 0
0.833333 0.499996 0
0.833333 0.541663 0
0.916666 0.499998 0
0.916666 0.541665 0
0.875 0.499997 0
0.875 0.541664 0
0.916666 0.541665 0
0.916666 0.583331 0
0.875 0.541664 0
0.875 0.58333 0
0.958333 0.916666 0
0.916667 0.916666 0
0.958333 0.875 0
0.916667 0.874999 0
0.958333 0.875 0
0.916667 0.874999 0
0.958333 0.833333 0
0.916667 0.833332 0
1 0.875 0
0.958333 0.875 0
1 0.833333 0
0.958333 0.833333 0
1 0.916667 0
0.958333 0.916666 0
1 0.875 0
0.958333 0.875 0
0.0416666 0.125 0
0.0416666 0.083333 0
0.0833332 0.124999 0
0.0833333 0.0833327 0
0.0416666 0.166666 0
0.0416666 0.125 0
0.0833332 0.166666 0
0.0833332 0.124999 0
0 0.166667 0
0 0.125 0
0.0416666 0.166666 0
0.0416666 0.125 0
0 0.125 0
0 0.0833333 0
0.0416666 0.125 0
0.0416666 0.083333 0
[...]
POINT_DATA 2304
SCALARS solution_0 double 1
LOOKUP_TABLE default
-0.00983237 -0.00600739 -0.0165644 -0.0107183 -0.013481 -0.00983237 -0.0221255 -0.0165644 -0.0064487 -0.00454307 -0.013481 -0.00983237 -0.00454307 -0.0024779 -0.00983237 -0.00600739 -0.137909 -0.151802 -0.118402 -0.130822 -0.123742 -0.137909 -0.106373 -0.118402 -0.135082 -0.150109 -0.123742 -0.137909 -0.150109 -0.164168 -0.137909 -0.151802 -0.111986 -0.123962 -0.0706842 -0.0802788 -0.101249 -0.111986 -0.0634952 -0.0706842 -0.130822 -0.143565 -0.101249 -0.111986 -0.143565 -0.156263 -0.111986 -0.123962 -0.151802 -0.16506 -0.130822 -0.143565 -0.164168 -0.176663 -0.151802 -0.16506 -0.176663 -0.186681 -0.16506 -0.176987 -0.16506 -0.176987 -0.143565 -0.156263 -0.168505 -0.165947 -0.179308 -0.174535 -0.179308 -0.174535 -0.18674 -0.179175 -0.176663 -0.179308 -0.186681 -0.18674 -0.164168 -0.168505 -0.176663 -0.179308 -0.0386446 -0.0271842 -0.0317644 -0.0221255 -0.050512 -0.0386446 -0.041817 -0.0317644 -0.0581985 -0.0446894 -0.050512 -0.0386446 -0.0446894 -0.0315994 -0.0386446 -0.0271842 0.145279 0.102852 0.0579771 0.0282333 0.185892 0.145279 0.0882983 0.0579771 0.358967 0.313853 0.185892 0.145279 0.313853 0.263652 0.145279 0.102852 -0.157971 -0.164205 -0.165947 -0.174535 -0.14612 -0.150167 -0.157971 -0.164205 -0.150167 -0.150019 -0.164205 -0.166232 -0.164205 -0.166232 -0.174535 -0.179175 -0.150109 -0.155332 -0.164168 -0.168505 -0.135082 -0.140532 -0.150109 -0.155332 -0.140532 -0.14062 -0.155332 -0.154379 -0.155332 -0.154379 -0.168505 -0.165947 -0.053903 -0.0404866 -0.0426116 -0.031449 -0.0641175 -0.0488249 -0.053903 -0.0404866 -0.0488249 -0.0336156 -0.0404866 -0.0274247 -0.0404866 -0.0274247 -0.031449 -0.0208048 -0.131777 -0.115998 -0.134 -0.116851 -0.134 -0.116851 -0.132241 -0.114064 -0.150167 -0.134 -0.150019 -0.132241 -0.14612 -0.131777 -0.150167 -0.134 -0.0167728 -0.013481 -0.0271842 -0.0221255 -0.0196216 -0.0167728 -0.0315994 -0.0271842 -0.00959148 -0.00814209 -0.0196216 -0.0167728 -0.00814209 -0.0064487 -0.0167728 -0.013481 -0.0447694 0.0192136 -0.00976032 0.0827726 -0.0820117 -0.0447694 -0.0726546 -0.00976032 -0.0637232 -0.0518495 -0.0820117 -0.0447694 -0.0518495 -0.0248843 -0.0447694 0.0192136 -0.0736414 -0.0565393 -0.0744043 -0.057124 -0.0706842 -0.0543856 -0.0736414 -0.0565393 -0.0543856 -0.0386282 -0.0565393 -0.0400798 -0.0565393 -0.0400798 -0.057124 -0.0404911 -0.175602 -0.15886 -0.156638 -0.138387 -0.187177 -0.175602 -0.171576 -0.156638 -0.193724 -0.186284 -0.187177 -0.175602 -0.186284 -0.172274 -0.175602 -0.15886 -0.106373 -0.118402 -0.0831992 -0.0917366 -0.118402 -0.130822 -0.0917366 -0.101249 -0.0917366 -0.101249 -0.0583145 -0.0634952 -0.0831992 -0.0917366 -0.0545991 -0.0583145 -0.0182435 -0.0177887 0.0296836 0.0368631 -0.020581 -0.0182435 0.0202156 0.0296836 -0.0545991 -0.0583145 -0.020581 -0.0182435 -0.0583145 -0.0634952 -0.0182435 -0.0177887 0.690009 0.710893 1 1 0.435178 0.466452 0.690009 0.710893 0.466452 0.492913 0.710893 0.727957 0.710893 0.727957 1 1 0.263652 0.208015 0.102852 0.0599837 0.208015 0.147067 0.0599837 0.0193253 0.0599837 0.0193253 0.00100012 -0.0207174 0.102852 0.0599837 0.0282333 0.00100012 -0.0164894 -0.0163001 0.0227105 -0.030732 0 0 -0.0164894 -0.0163001 0 0 -0.0163001 -0.0120681 -0.0163001 -0.0120681 -0.030732 -0.0292582 -0.138545 -0.14612 -0.148371 -0.157971 -0.148371 -0.157971 -0.154379 -0.165947 -0.136165 -0.148371 -0.14062 -0.154379 -0.128115 -0.138545 -0.136165 -0.148371 -0.0249741 -0.0252389 -0.0400798 -0.0404911 -0.0240953 -0.0249741 -0.0386282 -0.0400798 -0.0118055 -0.0122418 -0.0240953 -0.0249741 -0.0122418 -0.0123858 -0.0249741 -0.0252389 0.223914 0.185892 0.117888 0.0882983 0.258791 0.223914 0.145759 0.117888 0.435178 0.399344 0.258791 0.223914 0.399344 0.358967 0.223914 0.185892 -0.122006 -0.125294 -0.106447 -0.108886 -0.115461 -0.122006 -0.101158 -0.106447 -0.128115 -0.136165 -0.115461 -0.122006 -0.136165 -0.14062 -0.122006 -0.125294 -0.0781488 -0.100584 -0.0638733 -0.0835032 -0.0638733 -0.0835032 -0.0514682 -0.0682478 -0.0441034 -0.0638733 -0.0350557 -0.0514682 -0.0547663 -0.0781488 -0.0441034 -0.0638733 -0.0726546 -0.00976032 -0.0475333 0.032535 -0.00976032 0.0827726 0.032535 0.139591 0.032535 0.139591 0.0692211 0.181602 -0.0475333 0.032535 -0.0191946 0.0692211 -0.0594141 -0.0459651 -0.0507114 -0.0418178 -0.0710397 -0.0594141 -0.0588267 -0.0507114 -0.0829123 -0.0674734 -0.0710397 -0.0594141 -0.0674734 -0.0490696 -0.0594141 -0.0459651 -0.128115 -0.115461 -0.117395 -0.106369 -0.115461 -0.101158 -0.106369 -0.0935433 -0.106369 -0.0935433 -0.0953517 -0.0840854 -0.117395 -0.106369 -0.104776 -0.0953517 -0.0923956 -0.0351836 -0.0802788 -0.0255987 -0.106633 -0.0490364 -0.0923956 -0.0351836 -0.0490364 0.0235685 -0.0351836 0.0351046 -0.0351836 0.0351046 -0.0255987 0.0405508 -0.085534 -0.0965258 -0.126234 -0.136549 -0.0734531 -0.085534 -0.112147 -0.126234 -0.0366819 -0.0440484 -0.0734531 -0.085534 -0.0440484 -0.0516584 -0.085534 -0.0965258 0.023376 0.160724 -0.0106156 0.0312726 -0.0106156 0.0312726 -0.0203951 -0.0248843 0 -0.0106156 0 -0.0203951 0 0.023376 0 -0.0106156 -0.00113245 -0.000528316 -0.00454307 -0.0024779 -0.00167386 -0.00113245 -0.0064487 -0.00454307 0 0 -0.00167386 -0.00113245 0 0 -0.00113245 -0.000528316 -0.030732 -0.0292582 -0.0138028 -0.0326357 -0.0138028 -0.0326357 0.0193253 -0.0207174 0.0826706 -0.0138028 0.147067 0.0193253 0.0227105 -0.030732 0.0826706 -0.0138028 -0.0242492 0 -0.0229484 0 -0.0450185 -0.0242492 -0.0427371 -0.0229484 -0.0456033 -0.024567 -0.0450185 -0.0242492 -0.024567 0 -0.0242492 0 0.564348 1 0.639499 1 0.295718 0.564348 0.392908 0.639499 0.160724 0.441442 0.295718 0.564348 0.441442 1 0.564348 1 -0.00309993 -0.0116452 -0.00324441 -0.0121897 -0.00324441 -0.0121897 -0.00329241 -0.0123858 0 -0.00324441 0 -0.00329241 0 -0.00309993 0 -0.00324441 -0.154455 -0.139657 -0.172274 -0.15886 -0.135078 -0.120017 -0.154455 -0.139657 -0.120017 -0.100584 -0.139657 -0.119173 -0.139657 -0.119173 -0.15886 -0.138387 -0.080134 -0.0641175 -0.0682326 -0.053903 -0.0682326 -0.053903 -0.0547293 -0.0426116 -0.0839291 -0.0682326 -0.0682478 -0.0547293 -0.0972989 -0.080134 -0.0839291 -0.0682326 -0.101158 -0.106447 -0.085737 -0.0899709 -0.106447 -0.108886 -0.0899709 -0.0917977 -0.0899709 -0.0917977 -0.073033 -0.0744043 -0.085737 -0.0899709 -0.0697085 -0.073033 -0.0516584 -0.0587891 -0.0965258 -0.104556 -0.0587891 -0.0643415 -0.104556 -0.107104 -0.104556 -0.107104 -0.140078 -0.133269 -0.0965258 -0.104556 -0.136549 -0.140078 -0.0641175 -0.0724952 -0.0488249 -0.0558023 -0.0724952 -0.0784927 -0.0558023 -0.0609223 -0.0558023 -0.0609223 -0.0388532 -0.0427371 -0.0488249 -0.0558023 -0.0336156 -0.0388532 0 0 -0.000528316 0.000271109 0 0 0.000271109 0 0.000271109 0 -0.000593187 0 -0.000528316 0.000271109 -0.0024779 -0.000593187 -0.0170529 -0.0196876 -0.0587891 -0.0643415 -0.0143867 -0.0170529 -0.0516584 -0.0587891 0 0 -0.0143867 -0.0170529 0 0 -0.0170529 -0.0196876 -0.0224779 -0.031449 -0.0143513 -0.0208048 -0.0143537 -0.0224779 -0.00865719 -0.0143513 -0.0205218 -0.0311605 -0.0143537 -0.0224779 -0.0311605 -0.0426116 -0.0224779 -0.031449 -0.0329436 -0.0547663 -0.0261712 -0.0441034 -0.0261712 -0.0441034 -0.020539 -0.0350557 -0.0119579 -0.0261712 -0.00927816 -0.020539 -0.0152354 -0.0329436 -0.0119579 -0.0261712 0.457923 0.499801 0.278912 0.322944 0.278912 0.322944 0.139591 0.181602 0.213231 0.278912 0.0827726 0.139591 0.392908 0.457923 0.213231 0.278912 -0.0646769 -0.049734 -0.0581985 -0.0446894 -0.0697085 -0.0536021 -0.0646769 -0.049734 -0.0536021 -0.0380209 -0.049734 -0.0352512 -0.049734 -0.0352512 -0.0446894 -0.0315994 -0.104297 -0.0475333 -0.086604 -0.0191946 -0.140706 -0.104297 -0.134656 -0.086604 -0.133269 -0.112207 -0.140706 -0.104297 -0.112207 -0.0726546 -0.104297 -0.0475333 0.00039635 4.40964e-05 0 0 0 0.00039635 0 0 0 -0.00017791 0 0.00039635 -0.00017791 -0.00137667 0.00039635 4.40964e-05 0 -0.0164894 0 0.175904 -0.0164894 0.0227105 0.175904 0.28742 0.175904 0.28742 1 1 0 0.175904 1 1 -0.0667378 -0.0637232 -0.100951 -0.0820117 -0.100951 -0.0820117 -0.112207 -0.0726546 -0.107104 -0.100951 -0.133269 -0.112207 -0.0643415 -0.0667378 -0.107104 -0.100951 -0.0514682 -0.0682478 -0.0406912 -0.0547293 -0.0406912 -0.0547293 -0.0311605 -0.0426116 -0.027316 -0.0406912 -0.0205218 -0.0311605 -0.0350557 -0.0514682 -0.027316 -0.0406912 -0.0942653 -0.111773 -0.119173 -0.138387 -0.0781488 -0.0942653 -0.100584 -0.119173 -0.0547663 -0.0672028 -0.0781488 -0.0942653 -0.0672028 -0.081316 -0.0942653 -0.111773 -0.0107695 -0.00959148 -0.0219571 -0.0196216 -0.0219571 -0.0196216 -0.0352512 -0.0315994 -0.0237105 -0.0219571 -0.0380209 -0.0352512 -0.0116452 -0.0107695 -0.0237105 -0.0219571 -0.0561161 -0.057124 -0.0397958 -0.0404911 -0.0536021 -0.0561161 -0.0380209 -0.0397958 -0.0697085 -0.073033 -0.0536021 -0.0561161 -0.073033 -0.0744043 -0.0561161 -0.057124 0.0330464 0.0882983 0.0132755 0.0579771 0.0132755 0.0579771 -0.00489284 0.0282333 -0.0124943 0.0132755 -0.0213914 -0.00489284 -0.00185396 0.0330464 -0.0124943 0.0132755 -0.0121897 -0.0248183 -0.0123858 -0.0252389 -0.0116452 -0.0237105 -0.0121897 -0.0248183 -0.0237105 -0.0380209 -0.0248183 -0.0397958 -0.0248183 -0.0397958 -0.0252389 -0.0404911 -0.0418178 -0.0323587 -0.0361452 -0.0316666 -0.0323587 -0.0213914 -0.0316666 -0.0272486 -0.0316666 -0.0272486 -0.0279957 -0.0286938 -0.0361452 -0.0316666 -0.028726 -0.0279957 -0.186284 -0.189543 -0.172274 -0.178779 -0.193724 -0.192926 -0.186284 -0.189543 -0.192926 -0.186681 -0.189543 -0.18674 -0.189543 -0.18674 -0.178779 -0.179175 -0.00286327 -0.00254212 -0.0107695 -0.00959148 -0.00309993 -0.00286327 -0.0116452 -0.0107695 0 0 -0.00309993 -0.00286327 0 0 -0.00286327 -0.00254212 -0.0197074 0.00100012 -0.0289329 -0.0207174 -0.0272486 -0.0197074 -0.0286938 -0.0289329 -0.0213914 -0.00489284 -0.0272486 -0.0197074 -0.00489284 0.0282333 -0.0197074 0.00100012 -0.0196876 -0.02199 -0.0643415 -0.0667378 0 0 -0.0196876 -0.02199 0 0 -0.02199 -0.0234966 -0.02199 -0.0234966 -0.0667378 -0.0637232 0.24784 1 0.441442 1 0.023376 0.24784 0.160724 0.441442 0 0 0.023376 0.24784 0 1 0.24784 1 -0.0234966 -0.0234441 -0.0637232 -0.0518495 0 0 -0.0234966 -0.0234441 0 0 -0.0234441 -0.0203951 -0.0234441 -0.0203951 -0.0518495 -0.0248843 0.0312726 0.125116 -0.0248843 0.0192136 0.160724 0.295718 0.0312726 0.125116 0.295718 0.392908 0.125116 0.213231 0.125116 0.213231 0.0192136 0.0827726 -0.0871048 -0.0706842 -0.0909039 -0.0736414 -0.0909039 -0.0736414 -0.0917977 -0.0744043 -0.10799 -0.0909039 -0.108886 -0.0917977 -0.103408 -0.0871048 -0.10799 -0.0909039 -0.00254212 -0.00214403 -0.00959148 -0.00814209 0 0 -0.00254212 -0.00214403 0 0 -0.00214403 -0.00167386 -0.00214403 -0.00167386 -0.00814209 -0.0064487 -0.085737 -0.0697085 -0.0794658 -0.0646769 -0.0794658 -0.0646769 -0.0715187 -0.0581985 -0.0935433 -0.0794658 -0.0840854 -0.0715187 -0.101158 -0.085737 -0.0935433 -0.0794658 -0.0896055 -0.0961074 -0.0724952 -0.0784927 -0.080134 -0.0896055 -0.0641175 -0.0724952 -0.0972989 -0.107502 -0.080134 -0.0896055 -0.107502 -0.114064 -0.0896055 -0.0961074 -0.121667 -0.134656 -0.0667656 -0.086604 -0.0667656 -0.086604 0.00535879 -0.0191946 -0.0490364 -0.0667656 0.0235685 0.00535879 -0.106633 -0.121667 -0.0490364 -0.0667656 0.358967 0.636495 0.313853 0.602922 0.636495 1 0.602922 1 0.602922 1 0.563428 1 0.313853 0.602922 0.263652 0.563428 0.208015 0.516105 0.147067 0.457813 0.263652 0.563428 0.208015 0.516105 0.563428 1 0.516105 1 0.516105 1 0.457813 1 -0.0102072 -0.0201154 -0.0105566 -0.0198375 -0.0105548 -0.0212962 -0.0102072 -0.0201154 -0.0212962 -0.0335437 -0.0201154 -0.0307883 -0.0201154 -0.0307883 -0.0198375 -0.028726 0 0 -0.00963835 -0.0118792 0 0 -0.0118792 -0.0143867 -0.0118792 -0.0143867 -0.0440484 -0.0516584 -0.00963835 -0.0118792 -0.0366819 -0.0440484 0.0722725 0.145759 0.0530773 0.117888 0.0530773 0.117888 0.0330464 0.0882983 0.00938778 0.0530773 -0.00185396 0.0330464 0.0202156 0.0722725 0.00938778 0.0530773 -0.116851 -0.0993864 -0.114064 -0.0961074 -0.115998 -0.0994399 -0.116851 -0.0993864 -0.0994399 -0.082347 -0.0993864 -0.0818038 -0.0993864 -0.0818038 -0.0961074 -0.0784927 0 -0.00275133 0 -0.00294994 0 -0.0028012 0 -0.00275133 -0.0028012 -0.0105548 -0.00275133 -0.0102072 -0.00275133 -0.0102072 -0.00294994 -0.0105566 -0.146168 -0.171576 -0.12965 -0.156638 -0.12965 -0.156638 -0.111773 -0.138387 -0.096629 -0.12965 -0.081316 -0.111773 -0.112147 -0.146168 -0.096629 -0.12965 0 0 -0.00312407 -0.00324716 0 0 -0.00324716 -0.00329241 -0.00324716 -0.00329241 -0.0122418 -0.0123858 -0.00312407 -0.00324716 -0.0118055 -0.0122418 0.665306 1 0.636495 1 0.399344 0.665306 0.358967 0.636495 0.435178 0.690009 0.399344 0.665306 0.690009 1 0.665306 1 -0.112147 -0.126234 -0.146168 -0.158846 -0.126234 -0.136549 -0.158846 -0.164538 -0.158846 -0.164538 -0.180178 -0.179033 -0.146168 -0.158846 -0.171576 -0.180178 -0.0336156 -0.0176961 -0.0274247 -0.0141362 -0.0176961 0 -0.0141362 0 -0.0141362 0 -0.0103572 0 -0.0274247 -0.0141362 -0.0208048 -0.0103572 -0.00865719 -0.0143513 -0.00360131 -0.00672504 -0.0143513 -0.0208048 -0.00672504 -0.0103572 -0.00672504 -0.0103572 0 0 -0.00360131 -0.00672504 0 0 -0.041974 -0.038149 -0.0224606 -0.0202804 -0.038149 -0.0333426 -0.0202804 -0.0175628 -0.0202804 -0.0175628 0 0 -0.0224606 -0.0202804 0 0 -0.041069 -0.0506414 -0.0672028 -0.081316 -0.0329436 -0.041069 -0.0547663 -0.0672028 -0.0152354 -0.0192648 -0.0329436 -0.041069 -0.0192648 -0.0241634 -0.041069 -0.0506414 0.0202156 0.0296836 0.0722725 0.0896516 0.0296836 0.0368631 0.0896516 0.10425 0.0896516 0.10425 0.171044 0.192865 0.0722725 0.0896516 0.145759 0.171044 -0.149432 -0.159871 -0.106633 -0.121667 -0.177508 -0.182214 -0.149432 -0.159871 -0.182214 -0.179033 -0.159871 -0.164794 -0.159871 -0.164794 -0.121667 -0.134656 0.38388 0.457813 1 1 0.28742 0.38388 1 1 0.0227105 0.0826706 0.28742 0.38388 0.0826706 0.147067 0.38388 0.457813 -0.0622021 -0.050512 -0.0517415 -0.041817 -0.0731641 -0.0622021 -0.0610246 -0.0517415 -0.0840854 -0.0715187 -0.0731641 -0.0622021 -0.0715187 -0.0581985 -0.0622021 -0.050512 -0.136549 -0.140078 -0.164538 -0.159688 -0.140078 -0.133269 -0.159688 -0.140706 -0.159688 -0.140706 -0.164794 -0.134656 -0.164538 -0.159688 -0.179033 -0.164794 -0.00963835 -0.0366819 -0.00771136 -0.0299854 -0.00771136 -0.0299854 -0.00610366 -0.0241634 0 -0.00771136 0 -0.00610366 0 -0.00963835 0 -0.00771136 -0.0176961 -0.0207148 0 0 -0.0336156 -0.0388532 -0.0176961 -0.0207148 -0.0388532 -0.0427371 -0.0207148 -0.0229484 -0.0207148 -0.0229484 0 0 -0.119446 -0.103408 -0.124628 -0.10799 -0.124628 -0.10799 -0.125294 -0.108886 -0.140532 -0.124628 -0.14062 -0.125294 -0.135082 -0.119446 -0.140532 -0.124628 -0.186428 -0.168077 -0.176987 -0.156263 -0.192926 -0.186428 -0.186681 -0.176987 -0.193724 -0.191667 -0.192926 -0.186428 -0.191667 -0.177508 -0.186428 -0.168077 -0.0012864 -0.00360131 0 0 4.40964e-05 -0.0012864 0 0 -0.00137667 -0.00422596 4.40964e-05 -0.0012864 -0.00422596 -0.00865719 -0.0012864 -0.00360131 -0.0645732 -0.0456033 -0.0638822 -0.0450185 -0.0638822 -0.0450185 -0.0609223 -0.0427371 -0.0818038 -0.0638822 -0.0784927 -0.0609223 -0.082347 -0.0645732 -0.0818038 -0.0638822 -0.00312407 -0.0118055 -0.00295621 -0.0111824 -0.00295621 -0.0111824 -0.0028012 -0.0105548 0 -0.00295621 0 -0.0028012 0 -0.00312407 0 -0.00295621 -0.0907951 -0.0757202 -0.0964634 -0.0802327 -0.0964634 -0.0802327 -0.0994399 -0.082347 -0.111826 -0.0964634 -0.115998 -0.0994399 -0.104776 -0.0907951 -0.111826 -0.0964634 -0.145103 -0.163211 -0.150019 -0.166232 -0.135078 -0.154455 -0.145103 -0.163211 -0.154455 -0.172274 -0.163211 -0.178779 -0.163211 -0.178779 -0.166232 -0.179175 -0.135082 -0.123742 -0.119446 -0.109439 -0.123742 -0.106373 -0.109439 -0.0946135 -0.109439 -0.0946135 -0.0950059 -0.0829123 -0.119446 -0.109439 -0.103408 -0.0950059 -0.00702576 -0.0157731 -0.00503286 -0.01159 -0.00927816 -0.020539 -0.00702576 -0.0157731 -0.020539 -0.0350557 -0.0157731 -0.027316 -0.0157731 -0.027316 -0.01159 -0.0205218 -0.12617 -0.132241 -0.107502 -0.114064 -0.115724 -0.12617 -0.0972989 -0.107502 -0.135078 -0.145103 -0.115724 -0.12617 -0.145103 -0.150019 -0.12617 -0.132241 -0.0831992 -0.0545991 -0.075257 -0.0517328 -0.075257 -0.0517328 -0.0674734 -0.0490696 -0.0946135 -0.075257 -0.0829123 -0.0674734 -0.106373 -0.0831992 -0.0946135 -0.075257 -0.191667 -0.190434 -0.177508 -0.182214 -0.193724 -0.187177 -0.191667 -0.190434 -0.187177 -0.171576 -0.190434 -0.180178 -0.190434 -0.180178 -0.182214 -0.179033 -0.138545 -0.126056 -0.14612 -0.131777 -0.128115 -0.117395 -0.138545 -0.126056 -0.117395 -0.104776 -0.126056 -0.111826 -0.126056 -0.111826 -0.131777 -0.115998 -0.0507114 -0.0418178 -0.04115 -0.0361452 -0.04115 -0.0361452 -0.0307883 -0.028726 -0.0462515 -0.04115 -0.0335437 -0.0307883 -0.0588267 -0.0507114 -0.0462515 -0.04115 -0.020581 0.0202156 -0.0239962 0.00938778 -0.0239962 0.00938778 -0.0276657 -0.00185396 -0.0517328 -0.0239962 -0.0490696 -0.0276657 -0.0545991 -0.020581 -0.0517328 -0.0239962 -0.0299854 -0.0615635 -0.0241634 -0.0506414 -0.0366819 -0.0734531 -0.0299854 -0.0615635 -0.0734531 -0.112147 -0.0615635 -0.096629 -0.0615635 -0.096629 -0.0506414 -0.081316 -0.177508 -0.149432 -0.168077 -0.136789 -0.149432 -0.106633 -0.136789 -0.0923956 -0.136789 -0.0923956 -0.123962 -0.0802788 -0.168077 -0.136789 -0.156263 -0.123962 -0.115724 -0.0972989 -0.10123 -0.0839291 -0.10123 -0.0839291 -0.0835032 -0.0682478 -0.120017 -0.10123 -0.100584 -0.0835032 -0.135078 -0.115724 -0.120017 -0.10123 -0.000673729 -0.00316615 -0.00017791 -0.00137667 0 -0.000673729 0 -0.00017791 0 -0.00116607 0 -0.000673729 -0.00116607 -0.00503286 -0.000673729 -0.00316615 -0.0634952 -0.0706842 -0.0177887 -0.0199979 -0.0706842 -0.0802788 -0.0199979 -0.0255987 -0.0199979 -0.0255987 0.04081 0.0405508 -0.0177887 -0.0199979 0.0368631 0.04081 -0.0276657 -0.00185396 -0.0307425 -0.0124943 -0.0307425 -0.0124943 -0.0323587 -0.0213914 -0.0459651 -0.0307425 -0.0418178 -0.0323587 -0.0490696 -0.0276657 -0.0459651 -0.0307425 0.466452 0.28999 0.492913 0.316886 0.435178 0.258791 0.466452 0.28999 0.258791 0.145759 0.28999 0.171044 0.28999 0.171044 0.316886 0.192865 -0.0508383 -0.0462515 -0.0363317 -0.0335437 -0.0543856 -0.0508383 -0.0386282 -0.0363317 -0.0706842 -0.0656436 -0.0543856 -0.0508383 -0.0656436 -0.0588267 -0.0508383 -0.0462515 -0.103408 -0.0950059 -0.0871048 -0.0804074 -0.0950059 -0.0829123 -0.0804074 -0.0710397 -0.0804074 -0.0710397 -0.0656436 -0.0588267 -0.0871048 -0.0804074 -0.0706842 -0.0656436 -0.00775965 -0.0143537 -0.00422596 -0.00865719 -0.00316615 -0.00775965 -0.00137667 -0.00422596 -0.00503286 -0.01159 -0.00316615 -0.00775965 -0.01159 -0.0205218 -0.00775965 -0.0143537 -0.0953517 -0.0840854 -0.0828667 -0.0731641 -0.0828667 -0.0731641 -0.0691738 -0.0610246 -0.0907951 -0.0828667 -0.0757202 -0.0691738 -0.104776 -0.0953517 -0.0907951 -0.0828667 -0.041974 -0.0224606 -0.0445366 -0.0239373 -0.0224606 0 -0.0239373 0 -0.0239373 0 -0.024567 0 -0.0445366 -0.0239373 -0.0456033 -0.024567 0.115051 0.120936 0.210247 0.222042 0.10425 0.115051 0.192865 0.210247 0.0368631 0.04081 0.10425 0.115051 0.04081 0.0405508 0.115051 0.120936 -0.00290831 -0.0119579 -0.00223518 -0.00927816 0 -0.00290831 0 -0.00223518 0 -0.00374412 0 -0.00290831 -0.00374412 -0.0152354 -0.00290831 -0.0119579 -0.00479376 -0.00610366 -0.0192648 -0.0241634 -0.00374412 -0.00479376 -0.0152354 -0.0192648 0 0 -0.00374412 -0.00479376 0 0 -0.00479376 -0.00610366 -0.0161939 -0.0107183 -0.00798247 -0.00496606 -0.00798247 -0.00496606 0 0 -0.0112262 -0.00798247 0 0 -0.0220318 -0.0161939 -0.0112262 -0.00798247 -0.0333426 -0.0278622 -0.0175628 -0.014484 -0.0278622 -0.0220318 -0.014484 -0.0112262 -0.014484 -0.0112262 0 0 -0.0175628 -0.014484 0 0 0.120656 0.22688 0.120936 0.222042 0.0351046 0.120656 0.0405508 0.120936 0.0235685 0.112836 0.0351046 0.120656 0.112836 0.223107 0.120656 0.22688 0.536031 0.749644 0.536892 0.752625 0.749644 1 0.752625 1 0.752625 1 0.749412 1 0.536892 0.752625 0.529076 0.749412 -0.0610246 -0.0517415 -0.0477663 -0.0402758 -0.0517415 -0.041817 -0.0402758 -0.0322761 -0.0402758 -0.0322761 -0.0278622 -0.0220318 -0.0477663 -0.0402758 -0.0333426 -0.0278622 -0.0691738 -0.0610246