# vtk DataFile Version 3.0
#This file was generated by the deal.II library on 2020/11/19 at 14:56:01
ASCII
DATASET UNSTRUCTURED_GRID

POINTS 18900 double
0.125 0.124999 0
0.125 0.0833324 0
0.166666 0.124998 0
0.166667 0.0833322 0
0.125 0.166665 0
0.125 0.124999 0
0.166666 0.166664 0
0.166666 0.124998 0
0.0833332 0.166666 0
0.0833332 0.124999 0
0.125 0.166665 0
0.125 0.124999 0
0.0833332 0.124999 0
0.0833333 0.0833327 0
0.125 0.124999 0
0.125 0.0833324 0
0.458332 0.541659 0
0.499999 0.541659 0
0.458332 0.583326 0
0.499999 0.583326 0
0.416666 0.541659 0
0.458332 0.541659 0
0.416666 0.583326 0
0.458332 0.583326 0
0.416666 0.499992 0
0.458332 0.499992 0
0.416666 0.541659 0
0.458332 0.541659 0
0.458332 0.499992 0
0.499999 0.499992 0
0.458332 0.541659 0
0.499999 0.541659 0
0.541666 0.624993 0
0.583332 0.624993 0
0.541666 0.66666 0
0.583332 0.66666 0
0.499999 0.624993 0
0.541666 0.624993 0
0.499999 0.66666 0
0.541666 0.66666 0
0.499999 0.583326 0
0.541666 0.583326 0
0.499999 0.624993 0
0.541666 0.624993 0
0.541666 0.583326 0
0.583332 0.583326 0
0.541666 0.624993 0
0.583332 0.624993 0
0.499999 0.541659 0
0.541666 0.541659 0
0.499999 0.583326 0
0.541666 0.583326 0
0.499999 0.499992 0
0.541666 0.499992 0
0.499999 0.541659 0
0.541666 0.541659 0
0.541666 0.499992 0
0.583332 0.499992 0
0.541666 0.541659 0
0.583332 0.541659 0
0.541666 0.541659 0
0.583332 0.541659 0
0.541666 0.583326 0
0.583332 0.583326 0
0.499999 0.458326 0
0.499999 0.416659 0
0.541666 0.458326 0
0.541666 0.416659 0
0.541666 0.458326 0
0.541666 0.416659 0
0.583332 0.458326 0
0.583332 0.416659 0
0.541666 0.499992 0
0.541666 0.458326 0
0.583332 0.499992 0
0.583332 0.458326 0
0.499999 0.499992 0
0.499999 0.458326 0
0.541666 0.499992 0
0.541666 0.458326 0
0.208333 0.20833 0
0.166666 0.208331 0
0.208333 0.166664 0
0.166666 0.166664 0
0.25 0.20833 0
0.208333 0.20833 0
0.25 0.166664 0
0.208333 0.166664 0
0.208333 0.249996 0
0.166666 0.249997 0
0.208333 0.20833 0
0.166666 0.208331 0
0.291666 0.874997 0
0.25 0.874998 0
0.291666 0.83333 0
0.25 0.83333 0
0.333333 0.874997 0
0.291666 0.874997 0
0.333333 0.83333 0
0.291666 0.83333 0
0.499999 0.374993 0
0.541666 0.374993 0
0.499999 0.416659 0
0.541666 0.416659 0
0.499999 0.333326 0
0.541666 0.333326 0
0.499999 0.374993 0
0.541666 0.374993 0
0.541666 0.333326 0
0.583332 0.333327 0
0.541666 0.374993 0
0.583332 0.374993 0
0.541666 0.374993 0
0.583332 0.374993 0
0.541666 0.416659 0
0.583332 0.416659 0
0.458332 0.499992 0
0.458332 0.458326 0
0.499999 0.499992 0
0.499999 0.458326 0
0.416666 0.499992 0
0.416666 0.458326 0
0.458332 0.499992 0
0.458332 0.458326 0
0.416666 0.458326 0
0.416666 0.416659 0
0.458332 0.458326 0
0.458332 0.416659 0
0.458332 0.458326 0
0.458332 0.416659 0
0.499999 0.458326 0
0.499999 0.416659 0
0.499999 0.29166 0
0.499999 0.249994 0
0.541666 0.29166 0
0.541666 0.249994 0
0.541666 0.29166 0
0.541666 0.249994 0
0.583333 0.29166 0
0.583333 0.249994 0
0.541666 0.333326 0
0.541666 0.29166 0
0.583332 0.333327 0
0.583333 0.29166 0
0.499999 0.333326 0
0.499999 0.29166 0
0.541666 0.333326 0
0.541666 0.29166 0
0.125 0.208331 0
0.125 0.166665 0
0.166666 0.208331 0
0.166666 0.166664 0
0.125 0.249998 0
0.125 0.208331 0
0.166666 0.249997 0
0.166666 0.208331 0
0.0833331 0.249998 0
0.0833331 0.208332 0
0.125 0.249998 0
0.125 0.208331 0
0.0833331 0.208332 0
0.0833332 0.166666 0
0.125 0.208331 0
0.125 0.166665 0
0.249999 0.458327 0
0.208333 0.458328 0
0.249999 0.416661 0
0.208333 0.416662 0
0.249999 0.499994 0
0.208333 0.499995 0
0.249999 0.458327 0
0.208333 0.458328 0
0.708333 0.458327 0
0.708333 0.41666 0
0.749999 0.458328 0
0.749999 0.416661 0
0.708332 0.499994 0
0.708333 0.458327 0
0.749999 0.499994 0
0.749999 0.458328 0
0.666666 0.499993 0
0.666666 0.458327 0
0.708332 0.499994 0
0.708333 0.458327 0
0.666666 0.458327 0
0.666666 0.41666 0
0.708333 0.458327 0
0.708333 0.41666 0
0.416666 0.583326 0
0.458332 0.583326 0
0.416666 0.624993 0
0.458332 0.624993 0
0.458332 0.583326 0
0.499999 0.583326 0
0.458332 0.624993 0
0.499999 0.624993 0
0.458332 0.624993 0
0.499999 0.624993 0
0.458332 0.66666 0
0.499999 0.66666 0
0.416666 0.624993 0
0.458332 0.624993 0
0.416666 0.66666 0
0.458332 0.66666 0
0.458333 0.708327 0
0.499999 0.708327 0
0.458333 0.749994 0
0.499999 0.749994 0
0.416666 0.708327 0
0.458333 0.708327 0
0.416666 0.749994 0
0.458333 0.749994 0
0.416666 0.66666 0
0.458332 0.66666 0
0.416666 0.708327 0
0.458333 0.708327 0
0.458332 0.66666 0
0.499999 0.66666 0
0.458333 0.708327 0
0.499999 0.708327 0
0.458332 0.333326 0
0.499999 0.333326 0
0.458332 0.374993 0
0.499999 0.374993 0
0.458332 0.374993 0
0.499999 0.374993 0
0.458332 0.416659 0
0.499999 0.416659 0
0.416666 0.374993 0
0.458332 0.374993 0
0.416666 0.416659 0
0.458332 0.416659 0
0.416666 0.333327 0
0.458332 0.333326 0
0.416666 0.374993 0
0.458332 0.374993 0
0.375 0.874997 0
0.333333 0.874997 0
0.374999 0.83333 0
0.333333 0.83333 0
0.416666 0.874997 0
0.375 0.874997 0
0.416666 0.833329 0
0.374999 0.83333 0
0.374999 0.374993 0
0.374999 0.416659 0
0.333332 0.374993 0
0.333332 0.41666 0
0.374999 0.333327 0
0.374999 0.374993 0
0.333333 0.333327 0
0.333332 0.374993 0
0.416666 0.333327 0
0.416666 0.374993 0
0.374999 0.333327 0
0.374999 0.374993 0
0.416666 0.374993 0
0.416666 0.416659 0
0.374999 0.374993 0
0.374999 0.416659 0
0.791666 0.791664 0
0.791666 0.833331 0
0.75 0.791663 0
0.75 0.83333 0
0.791666 0.749997 0
0.791666 0.791664 0
0.749999 0.749996 0
0.75 0.791663 0
0.291666 0.624994 0
0.291666 0.666661 0
0.249999 0.624995 0
0.249999 0.666662 0
0.291666 0.583327 0
0.291666 0.624994 0
0.249999 0.583328 0
0.249999 0.624995 0
0.333332 0.583326 0
0.333332 0.624994 0
0.291666 0.583327 0
0.291666 0.624994 0
0.333332 0.624994 0
0.333333 0.666661 0
0.291666 0.624994 0
0.291666 0.666661 0
0.416666 0.333327 0
0.374999 0.333327 0
0.416666 0.29166 0
0.374999 0.291661 0
0.374999 0.333327 0
0.333333 0.333327 0
0.374999 0.291661 0
0.333333 0.291661 0
0.374999 0.291661 0
0.333333 0.291661 0
0.374999 0.249995 0
0.333333 0.249995 0
0.416666 0.29166 0
0.374999 0.291661 0
0.416666 0.249994 0
0.374999 0.249995 0
0.624999 0.66666 0
0.624999 0.708328 0
0.583332 0.66666 0
0.583333 0.708327 0
0.666666 0.666661 0
0.666666 0.708328 0
0.624999 0.66666 0
0.624999 0.708328 0
0.666666 0.708328 0
0.666666 0.749995 0
0.624999 0.708328 0
0.624999 0.749995 0
0.624999 0.708328 0
0.624999 0.749995 0
0.583333 0.708327 0
0.583333 0.749995 0
0.0416666 0.125 0
0.0416666 0.083333 0
0.0833332 0.124999 0
0.0833333 0.0833327 0
0 0.166667 0
0 0.125 0
0.0416666 0.166666 0
0.0416666 0.125 0
0 0.125 0
0 0.0833333 0
0.0416666 0.125 0
0.0416666 0.083333 0
0.541667 0.0416655 0
0.541667 0 0
0.583333 0.0416656 0
0.583333 0 0
0.541666 0.0833311 0
0.541667 0.0416655 0
0.583333 0.0833311 0
0.583333 0.0416656 0
0.5 0.0833311 0
0.5 0.0416655 0
0.541666 0.0833311 0
0.541667 0.0416655 0
0.5 0.0416655 0
0.5 0 0
0.541667 0.0416655 0
0.541667 0 0
0.666666 0.374994 0
0.708333 0.374994 0
0.666666 0.41666 0
0.708333 0.41666 0
0.666666 0.333327 0
0.708333 0.333328 0
0.666666 0.374994 0
0.708333 0.374994 0
0.708333 0.333328 0
0.749999 0.333328 0
0.708333 0.374994 0
0.749999 0.374995 0
0.708333 0.374994 0
0.749999 0.374995 0
0.708333 0.41666 0
0.749999 0.416661 0
0.333333 0.333327 0
0.333332 0.374993 0
0.291666 0.333328 0
0.291666 0.374994 0
0.333332 0.374993 0
0.333332 0.41666 0
0.291666 0.374994 0
0.291666 0.41666 0
0.291666 0.374994 0
0.291666 0.41666 0
0.249999 0.374994 0
0.249999 0.416661 0
0.291666 0.333328 0
0.291666 0.374994 0
0.249999 0.333328 0
0.249999 0.374994 0
0.625 0.124997 0
0.583333 0.124997 0
0.625 0.0833312 0
0.583333 0.0833311 0
0.666666 0.124997 0
0.625 0.124997 0
0.666666 0.0833314 0
0.625 0.0833312 0
0 0.0833333 0
0 0.0416667 0
0.0416666 0.083333 0
0.0416666 0.0416665 0
0 0.0416667 0
0 0 0
0.0416666 0.0416665 0
0.0416667 0 0
0.0416666 0.0416665 0
0.0416667 0 0
0.0833333 0.0416664 0
0.0833333 0 0
0.791666 0.70833 0
0.791666 0.749997 0
0.749999 0.708329 0
0.749999 0.749996 0
0.791666 0.666663 0
0.791666 0.70833 0
0.749999 0.666662 0
0.749999 0.708329 0
0.958333 0.0416665 0
0.916667 0.0416664 0
0.958333 0 0
0.916667 0 0
1 0.0416667 0
0.958333 0.0416665 0
1 0 0
0.958333 0 0
1 0.0833333 0
0.958333 0.083333 0
1 0.0416667 0
0.958333 0.0416665 0
0.958333 0.083333 0
0.916667 0.0833328 0
0.958333 0.0416665 0
0.916667 0.0416664 0
0.0833331 0.291665 0
0.0833331 0.249998 0
0.125 0.291664 0
0.125 0.249998 0
0.125 0.291664 0
0.125 0.249998 0
0.166666 0.291663 0
0.166666 0.249997 0
0.125 0.33333 0
0.125 0.291664 0
0.166666 0.33333 0
0.166666 0.291663 0
0.0833331 0.333331 0
0.0833331 0.291665 0
0.125 0.33333 0
0.125 0.291664 0
0.333333 0.791662 0
0.333333 0.83333 0
0.291666 0.791663 0
0.291666 0.83333 0
0.291666 0.791663 0
0.291666 0.83333 0
0.25 0.791663 0
0.25 0.83333 0
0.291666 0.749995 0
0.291666 0.791663 0
0.249999 0.749996 0
0.25 0.791663 0
0.333333 0.749995 0
0.333333 0.791662 0
0.291666 0.749995 0
0.291666 0.791663 0
0.0833331 0.333331 0
0.125 0.33333 0
0.083333 0.374998 0
0.125 0.374997 0
0.125 0.33333 0
0.166666 0.33333 0
0.125 0.374997 0
0.166666 0.374996 0
0.249999 0.666662 0
0.249999 0.708329 0
0.208333 0.666662 0
0.208333 0.708329 0
0.249999 0.708329 0
0.249999 0.749996 0
0.208333 0.708329 0
0.208333 0.749996 0
0.666666 0.458327 0
0.624999 0.458326 0
0.666666 0.41666 0
0.624999 0.41666 0
0.666666 0.499993 0
0.624999 0.499993 0
0.666666 0.458327 0
0.624999 0.458326 0
0.624999 0.499993 0
0.583332 0.499992 0
0.624999 0.458326 0
0.583332 0.458326 0
0.624999 0.458326 0
0.583332 0.458326 0
0.624999 0.41666 0
0.583332 0.416659 0
0.0416665 0.291666 0
0.0416666 0.249999 0
0.0833331 0.291665 0
0.0833331 0.249998 0
0 0.291667 0
0 0.25 0
0.0416665 0.291666 0
0.0416666 0.249999 0
0.249999 0.749996 0
0.25 0.791663 0
0.208333 0.749996 0
0.208333 0.791664 0
0.291666 0.499994 0
0.249999 0.499994 0
0.291666 0.458327 0
0.249999 0.458327 0
0.291666 0.458327 0
0.249999 0.458327 0
0.291666 0.41666 0
0.249999 0.416661 0
0.333332 0.458326 0
0.291666 0.458327 0
0.333332 0.41666 0
0.291666 0.41666 0
0.333332 0.499993 0
0.291666 0.499994 0
[...]
POINT_DATA 18900
SCALARS solution_0 double 1
LOOKUP_TABLE default
-0.0332077 -0.0104175 -0.0607822 -0.025727 -0.0595532 -0.0332077 -0.0982383 -0.0607822 -0.0289991 -0.0133563 -0.0595532 -0.0332077 -0.0133563 -0.00219745 -0.0332077 -0.0104175 -0.0217477 -0.0252507 0.0183592 0.015043 -0.0187543 -0.0217477 0.0209299 0.0183592 -0.0580354 -0.0613329 -0.0187543 -0.0217477 -0.0613329 -0.0649387 -0.0217477 -0.0252507 0.0520716 0.0462092 0.0953322 0.0892011 0.0564005 0.0520716 0.0995254 0.0953322 0.015043 0.0107137 0.0564005 0.0520716 0.0107137 0.00520807 0.0520716 0.0462092 -0.0252507 -0.0294788 0.015043 0.0107137 -0.0649387 -0.0690063 -0.0252507 -0.0294788 -0.0690063 -0.0736364 -0.0294788 -0.0345671 -0.0294788 -0.0345671 0.0107137 0.00520807 -0.104212 -0.14308 -0.108058 -0.14655 -0.108058 -0.14655 -0.112156 -0.150005 -0.0690063 -0.108058 -0.0736364 -0.112156 -0.0649387 -0.104212 -0.0690063 -0.108058 -0.179423 -0.129809 -0.14281 -0.0982383 -0.228722 -0.179423 -0.190394 -0.14281 -0.199651 -0.149801 -0.179423 -0.129809 0.227589 0.182999 0.221062 0.188149 0.265628 0.227589 0.248559 0.221062 -0.182046 -0.184892 -0.14308 -0.14655 -0.223388 -0.225546 -0.182046 -0.184892 -0.225546 -0.228385 -0.184892 -0.187763 -0.184892 -0.187763 -0.14655 -0.150005 -0.0613329 -0.100597 -0.0649387 -0.104212 -0.0580354 -0.0971847 -0.0613329 -0.100597 -0.0971847 -0.136591 -0.100597 -0.139703 -0.100597 -0.139703 -0.104212 -0.14308 -0.270396 -0.320644 -0.272572 -0.323438 -0.272572 -0.323438 -0.276208 -0.32729 -0.225546 -0.272572 -0.228385 -0.276208 -0.223388 -0.270396 -0.225546 -0.272572 -0.0839205 -0.0595532 -0.129809 -0.0982383 -0.1009 -0.0839205 -0.149801 -0.129809 -0.0559804 -0.0441933 -0.1009 -0.0839205 -0.0441933 -0.0289991 -0.0839205 -0.0595532 -0.0853754 -0.0786852 -0.125326 -0.11611 -0.0463381 -0.0416656 -0.0853754 -0.0786852 -0.124029 -0.159885 -0.128188 -0.165768 -0.0893328 -0.124029 -0.0941171 -0.128188 -0.0841714 -0.120408 -0.0893328 -0.124029 -0.120408 -0.15639 -0.124029 -0.159885 0.0209299 0.0183592 0.061432 0.0594088 0.0183592 0.015043 0.0594088 0.0564005 0.0594088 0.0564005 0.102072 0.0995254 0.061432 0.0594088 0.103372 0.102072 0.147174 0.145312 0.195192 0.194438 0.147393 0.147174 0.193591 0.195192 0.103372 0.102072 0.147393 0.147174 0.102072 0.0995254 0.147174 0.145312 -0.221877 -0.223388 -0.17941 -0.182046 -0.17941 -0.182046 -0.139703 -0.14308 -0.177281 -0.17941 -0.136591 -0.139703 -0.221094 -0.221877 -0.177281 -0.17941 0.295778 0.265628 0.269466 0.248559 0.318269 0.295778 0.284347 0.269466 -0.175908 -0.134024 -0.174922 -0.132106 -0.220816 -0.175908 -0.219585 -0.174922 -0.221094 -0.177281 -0.220816 -0.175908 -0.177281 -0.136591 -0.175908 -0.134024 0.125123 0.164996 0.160195 0.204368 0.0891457 0.125123 0.118341 0.160195 0.065042 0.102618 0.0647136 0.0993937 0.0272145 0.065042 0.0286475 0.0647136 0.0252073 0.0641582 0.0272145 0.065042 0.0641582 0.103741 0.065042 0.102618 -0.221094 -0.220816 -0.268772 -0.267538 -0.220816 -0.219585 -0.267538 -0.262952 -0.267538 -0.262952 -0.309304 -0.298084 -0.268772 -0.267538 -0.31534 -0.309304 0.0809194 0.126027 0.0892011 0.135091 0.070309 0.113872 0.0809194 0.126027 0.113872 0.160716 0.126027 0.174672 0.126027 0.174672 0.135091 0.184596 -0.00283067 0.0011204 -0.0133563 -0.00219745 0 0 -0.00745986 -0.00283067 0 0 -0.00283067 0.0011204 -0.104399 0 -0.0909263 0 -0.19931 -0.104399 -0.180891 -0.0909263 -0.207016 -0.109689 -0.19931 -0.104399 -0.109689 0 -0.104399 0 -0.194285 -0.199952 -0.15639 -0.159885 -0.238227 -0.247008 -0.194285 -0.199952 -0.247008 -0.257959 -0.199952 -0.209009 -0.199952 -0.209009 -0.159885 -0.165768 -0.219585 -0.174922 -0.214538 -0.172385 -0.174922 -0.132106 -0.172385 -0.130018 -0.172385 -0.130018 -0.165376 -0.125326 -0.214538 -0.172385 -0.203481 -0.165376 -0.250914 -0.280117 -0.153078 -0.180891 -0.209399 -0.250914 -0.117543 -0.153078 0 0 0.0011204 -0.00116299 0 0 -0.00116299 0 -0.00116299 0 0.00360848 0 0.05548 0.0891457 0.0788433 0.118341 0.0234943 0.05548 0.0416297 0.0788433 -0.00206602 0.00163269 0 0 0 -0.00206602 0 0 0 0.000875582 0 -0.00206602 0.000875582 0.0023981 -0.00206602 0.00163269 -0.0622038 -0.0559804 -0.108406 -0.1009 -0.108406 -0.1009 -0.156475 -0.149801 -0.105431 -0.108406 -0.147522 -0.156475 -0.0620735 -0.0622038 -0.105431 -0.108406 0.21949 0.248559 0.201821 0.221062 0.201821 0.221062 0.178683 0.188149 0.173411 0.201821 0.159029 0.178683 0.183234 0.21949 0.173411 0.201821 -0.0620735 -0.105431 -0.0546399 -0.0928734 -0.105431 -0.147522 -0.0928734 -0.127454 0.0993937 0.131552 0.0929917 0.119616 0.131552 0.159029 0.119616 0.139742 -0.120408 -0.116377 -0.15639 -0.1533 -0.0841714 -0.0787831 -0.120408 -0.116377 -0.0787831 -0.0736364 -0.116377 -0.112156 -0.116377 -0.112156 -0.1533 -0.150005 -0.0193269 -0.0177965 -0.0622038 -0.0559804 0 0 -0.0193269 -0.0177965 0.159029 0.178683 0.139742 0.150982 -0.0493863 -0.0463381 -0.0889652 -0.0853754 -0.0889652 -0.0853754 -0.130018 -0.125326 -0.0914077 -0.0889652 -0.132106 -0.130018 -0.052077 -0.0493863 -0.0914077 -0.0889652 -0.0177965 -0.0132299 -0.0559804 -0.0441933 0 0 -0.0177965 -0.0132299 0 0 -0.0132299 -0.00745986 -0.0132299 -0.00745986 -0.0441933 -0.0289991 -0.219585 -0.214538 -0.262952 -0.252761 0.057227 0.0416297 0.0982487 0.0788433 0.0982487 0.0788433 0.142113 0.118341 0.113872 0.0982487 0.160716 0.142113 0.070309 0.057227 0.113872 0.0982487 0.240522 0.284347 0.232133 0.269466 0.232133 0.269466 0.21949 0.248559 0.189715 0.232133 0.183234 0.21949 0.193591 0.240522 0.189715 0.232133 -0.100095 -0.0941171 -0.135573 -0.128188 -0.135573 -0.128188 -0.176057 -0.165768 -0.0682103 -0.0376761 -0.0610632 -0.0277807 -0.100095 -0.0682103 -0.0941171 -0.0610632 -0.0482491 0 -0.0274608 0 -0.0274608 0 -0.0106027 0 0.000167184 -0.0106027 0 0 0.0050552 0.000167184 0 0 -0.190712 -0.16861 -0.095811 -0.0799789 -0.16861 -0.139793 -0.0799789 -0.0616517 -0.0799789 -0.0616517 0 0 -0.095811 -0.0799789 0 0 0.193591 0.195192 0.240522 0.245191 0.195192 0.194438 0.245191 0.246331 0.245191 0.246331 0.293669 0.297807 0.240522 0.245191 0.284347 0.293669 0.0294645 0.0185844 0.070309 0.057227 -0.00947571 -0.0183708 0.0294645 0.0185844 -0.0183708 -0.0277807 0.0185844 0.00627548 0.0185844 0.00627548 0.057227 0.0416297 -0.00735665 0.0234943 0.00627548 0.0416297 -0.0376761 -0.00735665 -0.0277807 0.00627548 -0.0482491 -0.0713064 0 0 -0.117543 -0.153078 -0.0482491 -0.0713064 -0.153078 -0.180891 -0.0713064 -0.0909263 -0.0713064 -0.0909263 0 0 -0.0549464 -0.052077 -0.0940675 -0.0914077 -0.0940675 -0.0914077 -0.134024 -0.132106 -0.0971847 -0.0940675 -0.136591 -0.134024 -0.0580354 -0.0549464 -0.0971847 -0.0940675 -0.0405333 -0.00153951 -0.0345671 0.00520807 -0.0787831 -0.0405333 -0.0736364 -0.0345671 -0.0841714 -0.0472189 -0.0787831 -0.0405333 -0.0472189 -0.00947571 -0.0405333 -0.00153951 0.00473927 0.0050552 0 0 0.00163269 0.00473927 0 0 0.0023981 0.00231639 0.00163269 0.00473927 0.00231639 -0.00389842 0.00473927 0.0050552 -0.300487 -0.207016 -0.296341 -0.19931 -0.296341 -0.19931 -0.280117 -0.180891 -0.232322 -0.190717 -0.228385 -0.187763 -0.238227 -0.194285 -0.232322 -0.190717 -0.194285 -0.15639 -0.190717 -0.1533 -0.190717 -0.1533 -0.187763 -0.150005 -0.0580354 -0.0187543 -0.0549464 -0.0160252 -0.0187543 0.0209299 -0.0160252 0.0231117 -0.0160252 0.0231117 -0.0133898 0.0252073 -0.0549464 -0.0160252 -0.052077 -0.0133898 -0.28163 -0.276208 -0.332272 -0.32729 -0.289145 -0.28163 -0.336809 -0.332272 -0.238227 -0.232322 -0.289145 -0.28163 -0.232322 -0.228385 -0.28163 -0.276208 0.061432 0.103372 0.062906 0.10386 0.062906 0.10386 0.0641582 0.103741 0.0231117 0.062906 0.0252073 0.0641582 0.0209299 0.061432 0.0231117 0.062906 -0.0472189 -0.0542282 -0.00947571 -0.0183708 -0.0841714 -0.0893328 -0.0472189 -0.0542282 -0.0893328 -0.0941171 -0.0542282 -0.0610632 -0.0542282 -0.0610632 -0.0183708 -0.0277807 -0.221877 -0.269301 -0.223388 -0.270396 -0.221094 -0.268772 -0.221877 -0.269301 -0.268772 -0.31534 -0.269301 -0.318364 -0.269301 -0.318364 -0.270396 -0.320644 0.0647136 0.0993937 0.0623764 0.0929917 0.0286475 0.0647136 0.0292399 0.0623764 0.147393 0.193591 0.14628 0.189715 0.14628 0.189715 0.143789 0.183234 0.10386 0.14628 0.103741 0.143789 0.103372 0.147393 0.10386 0.14628 -0.00947571 0.0294645 -0.00153951 0.0386901 0.0294645 0.070309 0.0386901 0.0809194 0.0386901 0.0809194 0.0462092 0.0892011 -0.00153951 0.0386901 0.00520807 0.0462092 -0.238227 -0.289145 -0.247008 -0.29736 0.000855352 0.000543247 0.000875582 0.0023981 0 0.000855352 0 0.000875582 0 0.00037378 0 0.000855352 0.00037378 -0.00418088 0.000855352 0.000543247 0.0995254 0.0953322 0.145312 0.141407 0.0953322 0.0892011 0.141407 0.135091 0.141407 0.135091 0.191036 0.184596 0.145312 0.141407 0.194438 0.191036 0.143789 0.183234 0.139281 0.173411 0.139281 0.173411 0.131552 0.159029 0.102618 0.139281 0.0993937 0.131552 0.103741 0.143789 0.102618 0.139281 0.318269 0.284347 0.333398 0.293669 0.333398 0.293669 0.341645 0.297807 -0.0463381 -0.00836998 -0.0416656 -0.00557782 -0.00836998 0.0286475 -0.00557782 0.0292399 -0.052077 -0.0133898 -0.0493863 -0.0108236 -0.0133898 0.0252073 -0.0108236 0.0272145 -0.0108236 0.0272145 -0.00836998 0.0286475 -0.0493863 -0.0108236 -0.0463381 -0.00836998 -0.00661108 -0.024828 0.00231639 -0.00389842 0.000543247 -0.00661108 0.0023981 0.00231639 -0.00418088 -0.0216298 0.000543247 -0.00661108 -0.190712 -0.095811 -0.203964 -0.106453 -0.095811 0 -0.106453 0 -0.106453 0 -0.109689 0 -0.203964 -0.106453 -0.207016 -0.109689 0.243843 0.237417 0.296866 0.290678 0.246331 0.243843 0.297807 0.296866 0.194438 0.191036 0.246331 0.243843 0.191036 0.184596 0.243843 0.237417 -0.0121387 -0.00188622 0 0 -0.0264799 -0.0121387 0 0 -0.0764441 -0.0483818 -0.0264799 -0.0121387 -0.139793 -0.107969 -0.0616517 -0.0431922 -0.107969 -0.0764441 -0.0431922 -0.0264799 -0.0431922 -0.0264799 0 0 -0.0616517 -0.0431922 0 0 0.226519 0.278891 0.237417 0.290678 0.174672 0.226519 0.184596 0.237417 0.160716 0.210444 0.174672 0.226519 0.210444 0.26096 0.226519 0.278891 -0.277757 -0.236173 -0.217754 -0.17806 -0.236173 -0.190394 -0.17806 -0.136141 -0.17806 -0.136141 -0.107969 -0.0764441 -0.217754 -0.17806 -0.139793 -0.107969 -0.250893 -0.217754 -0.16861 -0.139793 -0.276881 -0.250893 -0.190712 -0.16861 -0.276881 -0.190712 -0.293676 -0.203964 -0.293676 -0.203964 -0.300487 -0.207016 -0.00219745 0.00360848 -0.0104175 0.00376664 0.00360848 0 0.00376664 0 0.00376664 0 -0.00188622 0 -0.0104175 0.00376664 -0.025727 -0.00188622 0.188545 0.160195 0.236283 0.204368 0.210444 0.188545 0.26096 0.236283 0.160716 0.142113 0.210444 0.188545 0.142113 0.118341 0.188545 0.160195 0.327163 0.338514 0.278891 0.290678 -0.0958098 -0.0607822 -0.0483818 -0.025727 -0.136141 -0.0958098 -0.0764441 -0.0483818 -0.190394 -0.14281 -0.136141 -0.0958098 -0.14281 -0.0982383 -0.0958098 -0.0607822 0.341645 0.297807 0.343319 0.296866 0.343319 0.296866 0.338514 0.290678 0.266311 0.242699 0.267734 0.24728 0.242699 0.2168 0.24728 0.224166 0.267734 0.24728 0.265628 0.246609 0.24728 0.224166 0.246609 0.227589 0.2168 0.188561 0.224166 0.199484 0.188561 0.158402 0.199484 0.172037 0.224166 0.199484 0.227589 0.205294 0.199484 0.172037 0.205294 0.182999 0.0422866 0.0556342 0.0641519 0.0790268 0.0556342 0.0718219 0.0790268 0.0965484 0.0641519 0.0790268 0.0853687 0.101774 0.0790268 0.0965484 0.101774 0.120344 0.0199191 0.0306269 0.0384758 0.0508484 0.0306269 0.0422866 0.0508484 0.0641519 0.0384758 0.0508484 0.0561596 0.0703508 0.0508484 0.0641519 0.0703508 0.0853687 0.158402 0.127055 0.172037 0.143331 0.127055 0.0951703 0.143331 0.11403 0.172037 0.143331 0.182999 0.156089 0.143331 0.11403 0.156089 0.129481 0.0951703 0.0633259 0.11403 0.0847115 0.0633259 0.0327049 0.0847115 0.0563292 0.11403 0.0847115 0.129481 0.102755 0.0847115 0.0563292 0.102755 0.0765071 -0.0316589 -0.015424 -0.0437688 -0.0211407 -0.015424 -0.00543103 -0.0211407 -0.00551496 -0.0437688 -0.0211407 -0.0450207 -0.0191861 -0.0211407 -0.00551496 -0.0191861 0.000175165 0 0 -0.0115709 -0.00533234 0 0 -0.00533234 -0.00206656 -0.0115709 -0.00533234 -0.0316589 -0.015424 -0.00533234 -0.00206656 -0.015424 -0.00543103 0.337442 0.322984 0.329263 0.317188 0.322984 0.306413 0.317188 0.302738 0.329263 0.317188 0.318269 0.307023 0.317188 0.302738 0.307023 0.295778 0.306413 0.28747 0.302738 0.286507 0.28747 0.266311 0.286507 0.267734 0.302738 0.286507 0.295778 0.280703 0.286507 0.267734 0.280703 0.265628 -0.265647 -0.263948 -0.2789 -0.283884 -0.263948 -0.257959 -0.283884 -0.282376 -0.2789 -0.283884 -0.28284 -0.296611 -0.283884 -0.282376 -0.296611 -0.301786 -0.28284 -0.296611 -0.273634 -0.297983 -0.296611 -0.301786 -0.297983 -0.31217 -0.273634 -0.297983 -0.253126 -0.285899 -0.297983 -0.31217 -0.285899 -0.309717 -0.220133 -0.256864 -0.196704 -0.239219 -0.256864 -0.28284 -0.239219 -0.273634 -0.196704 -0.239219 -0.168261 -0.212895 -0.239219 -0.273634 -0.212895 -0.253126 0.0561596 0.0703508 0.0730464 0.0891202 0.0703508 0.0853687 0.0891202 0.105828 0.0730464 0.0891202 0.0891457 0.107134 0.0891202 0.105828 0.107134 0.125123 0.0853687 0.101774 0.105828 0.123631 0.101774 0.120344 0.123631 0.143216 0.105828 0.123631 0.125123 0.145059 0.123631 0.143216 0.145059 0.164996 -0.0970628 -0.0822815 -0.0874476 -0.072228 -0.0822815 -0.0684014 -0.072228 -0.0580079 -0.0874476 -0.072228 -0.0789858 -0.0639342 -0.072228 -0.0580079 -0.0639342 -0.0496181 -0.128765 -0.112645 -0.121167 -0.10375 -0.112645 -0.0970628 -0.10375 -0.0874476 -0.121167 -0.10375 -0.112255 -0.095056 -0.10375 -0.0874476 -0.095056 -0.0789858 -0.0188819 0.00770748 0.00471858 0.0301359 0.00770748 0.0298115 0.0301359 0.0517465 0.00471858 0.0301359 0.0327049 0.0563292 0.0301359 0.0517465 0.0563292 0.0765071 -0.0450207 -0.0191861 -0.0361312 -0.00925091 -0.0191861 0.000175165 -0.00925091 0.0121818 -0.0361312 -0.00925091 -0.0188819 0.00770748 -0.00925091 0.0121818 0.00770748 0.0298115 -0.0220259 -0.0412446 -0.0212156 -0.0393232 -0.0412446 -0.0620735 -0.0393232 -0.0583567 -0.0212156 -0.0393232 -0.0192954 -0.0363645 -0.0393232 -0.0583567 -0.0363645 -0.0546399 -0.0192954 -0.0363645 -0.0168622 -0.0325172 -0.0363645 -0.0546399 -0.0325172 -0.0493943 -0.0168622 -0.0325172 -0.0140619 -0.0278626 -0.0325172 -0.0493943 -0.0278626 -0.0431139 -0.333164 -0.333594 -0.324937 -0.317014 -0.333594 -0.318599 -0.317014 -0.294424 -0.324937 -0.317014 -0.309717 -0.293076 -0.317014 -0.294424 -0.293076 -0.263873 -0.336809 -0.349668 -0.336381 -0.344 -0.349668 -0.348971 -0.344 -0.336517 -0.336381 -0.344 -0.333164 -0.333594 -0.344 -0.336517 -0.333594 -0.318599 -0.0432686 -0.0318305 -0.031931 -0.019757 -0.0318305 -0.0209701 -0.019757 -0.00796485 -0.031931 -0.019757 -0.0225784 -0.00953153 -0.019757 -0.00796485 -0.00953153 0.00340626 -0.0684014 -0.0554225 -0.0580079 -0.0446241 -0.0554225 -0.0432686 -0.0446241 -0.031931 -0.0580079 -0.0446241 -0.0496181 -0.0359086 -0.0446241 -0.031931 -0.0359086 -0.0225784 -0.0728781 -0.118477 -0.0596355 -0.10109 -0.118477 -0.167404 -0.10109 -0.148643 -0.0596355 -0.10109 -0.0471424 -0.0830948 -0.10109 -0.148643 -0.0830948 -0.127254 0.215529 0.235132 0.187949 0.208642 0.235132 0.253041 0.208642 0.227283 0.187949 0.208642 0.164996 0.184682 0.208642 0.227283 0.184682 0.204368 0.17166 0.194332 0.142819 0.165985 0.194332 0.215529 0.165985 0.187949 0.142819 0.165985 0.120344 0.143216 0.165985 0.187949 0.143216 0.164996 0.00340626 0.0163107 0.0136974 0.0282005 0.0163107 0.0293278 0.0282005 0.0427014 0.0136974 0.0282005 0.0234943 0.0394871 0.0282005 0.0427014 0.0394871 0.05548 0.0293278 0.0425572 0.0427014 0.0577693 0.0425572 0.0561596 0.0577693 0.0730464 0.0427014 0.0577693 0.05548 0.0723128 0.0577693 0.0730464 0.0723128 0.0891457 -0.000384727 0.00968965 0.0150821 0.026644 0.00968965 0.0199191 0.026644 0.0384758 0.0150821 0.026644 0.0293278 0.0425572 0.026644 0.0384758 0.0425572 0.0561596 -0.0209701 -0.0105428 -0.00796485 0.00360354 -0.0105428 -0.000384727 0.00360354 0.0150821 -0.00796485 0.00360354 0.00340626 0.0163107 0.00360354 0.0150821 0.0163107 0.0293278 -0.253126 -0.285899 -0.223345 -0.261507 -0.285899 -0.309717 -0.261507 -0.293076 -0.223345 -0.261507 -0.187961 -0.227765 -0.261507 -0.293076 -0.227765 -0.263873 -0.265647 -0.245855 -0.263948 -0.240167 -0.245855 -0.223058 -0.240167 -0.215773 -0.263948 -0.240167 -0.257959 -0.233484 -0.240167 -0.215773 -0.233484 -0.209009 -0.228048 -0.211148 -0.228645 -0.207098 -0.211148 -0.191614 -0.207098 -0.184763 -0.228645 -0.207098 -0.223058 -0.199489 -0.207098 -0.184763 -0.199489 -0.176057 0.121202 0.14756 0.0926883 0.118455 0.14756 0.17166 0.118455 0.142819 0.0926883 0.118455 0.0718219 0.0965484 0.118455 0.142819 0.0965484 0.120344 -0.361836 -0.364245 -0.356021 -0.362708 -0.364245 -0.365071 -0.362708 -0.366769 -0.356021 -0.362708 -0.333685 -0.344569 -0.362708 -0.366769 -0.344569 -0.352297 -0.348971 -0.357033 -0.332027 -0.34607 -0.357033 -0.361836 -0.34607 -0.356021 -0.332027 -0.34607 -0.300026 -0.318875 -0.34607 -0.356021 -0.318875 -0.333685 -0.336809 -0.334541 -0.349668 -0.352137 -0.334541 -0.332272 -0.352137 -0.352465 -0.349668 -0.352137 -0.348971 -0.357033 -0.352137 -0.352465 -0.357033 -0.361836 -0.332272 -0.329781 -0.352465 -0.351536 -0.329781 -0.32729 -0.351536 -0.350272 -0.352465 -0.351536 -0.361836 -0.364245 -0.351536 -0.350272 -0.364245 -0.365071 -0.323438 -0.347061 -0.325364 -0.34859 -0.347061 -0.363921 -0.34859 -0.364867 -0.325364 -0.34859 -0.32729 -0.350272 -0.34859 -0.364867 -0.350272 -0.365071 -0.363921 -0.369313 -0.364867 -0.368844 -0.369313 -0.359582 -0.368844 -0.357075 -0.364867 -0.368844 -0.365071 -0.366769 -0.368844 -0.357075 -0.366769 -0.352297 0 0.00373986 0 0.00403817 0.00373986 0.0111575 0.00403817 0.0131164 0 0.00403817 0 0.00440818 0.00403817 0.0131164 0.00440818 0.0146759 0.0111575 0.0174692 0.0131164 0.0219213 0.0174692 0.021648 0.0219213 0.0285835 0.0131164 0.0219213 0.0146759 0.0256663 0.0219213 0.0285835 0.0256663 0.0348432 -0.150457 -0.142344 -0.170887 -0.162822 -0.142344 -0.135573 -0.162822 -0.155815 -0.170887 -0.162822 -0.191614 -0.184763 -0.162822 -0.155815 -0.184763 -0.176057 -0.00750823 -0.0109843 -0.016935 -0.0226969 -0.0109843 -0.0140619 -0.0226969 -0.0278626 -0.016935 -0.0226969 -0.0280977 -0.0359133 -0.0226969 -0.0278626 -0.0359133 -0.0431139 -0.0496181 -0.0359086 -0.0432044 -0.0287691 -0.0359086 -0.0225784 -0.0287691 -0.0146846 -0.0432044 -0.0287691 -0.0376761 -0.0225164 -0.0287691 -0.0146846 -0.0225164 -0.00735665 -0.0225784 -0.00953153 -0.0146846 -0.000416152 -0.00953153 0.00340626 -0.000416152 0.0136974 -0.0146846 -0.000416152 -0.00735665 0.00806883 -0.000416152 0.0136974 0.00806883 0.0234943 -0.128765 -0.121167 -0.144774 -0.13941 -0.121167 -0.112255 -0.13941 -0.130797 -0.144774 -0.13941 -0.16047 -0.158298 -0.13941 -0.130797 -0.158298 -0.150457 -0.289145 -0.312977 -0.293252 -0.31737 -0.312977 -0.336809 -0.31737 -0.336381 -0.293252 -0.31737 -0.29736 -0.319622 -0.31737 -0.336381 -0.319622 -0.333164 -0.29736 -0.319622 -0.301191 -0.318594 -0.319622 -0.333164 -0.318594 -0.324937 -0.301191 -0.318594 -0.301786 -0.31217 -0.318594 -0.324937 -0.31217 -0.309717 -0.247008 -0.272184 -0.252483 -0.277448 -0.272184 -0.29736 -0.277448 -0.301191 -0.252483 -0.277448 -0.257959 -0.282376 -0.277448 -0.301191 -0.282376 -0.301786 0.359942 0.347678 0.368173 0.354081 0.347678 0.333398 0.354081 0.337522 0.368173 0.354081 0.374606 0.358506 0.354081 0.337522 0.358506 0.341645 0.337442 0.329263 0.349674 0.33955 0.329263 0.318269 0.33955 0.325833 0.349674 0.33955 0.359942 0.347678 0.33955 0.325833 0.347678 0.333398 -0.00740111 -0.022145 -0.00526318 -0.0161641 -0.022145 -0.0471424 -0.0161641 -0.0359679 -0.00526318 -0.0161641 -0.00343391 -0.0113757 -0.0161641 -0.0359679 -0.0113757 -0.0264631 0 -0.0011617 0 -0.000901507 -0.0011617 -0.00740111 -0.000901507 -0.00526318 0 -0.000901507 0 -0.000438953 -0.000901507 -0.00526318 -0.000438953 -0.00343391 -0.0137935 -0.0367717 -0.0102522 -0.0290758 -0.0367717 -0.0728781 -0.0290758 -0.0596355 -0.0102522 -0.0290758 -0.00740111 -0.022145 -0.0290758 -0.0596355 -0.022145 -0.0471424 -0.0218128 -0.0266976 -0.0539561 -0.062823 -0.0266976 -0.0310674 -0.062823 -0.0697172 -0.0539561 -0.062823 -0.0981569 -0.108584 -0.062823 -0.0697172 -0.108