# vtk DataFile Version 3.0
#This file was generated by the deal.II library on 2020/11/19 at 14:54:42
ASCII
DATASET UNSTRUCTURED_GRID

POINTS 38916 double
0.458332 0.541659 0
0.499999 0.541659 0
0.458332 0.583326 0
0.499999 0.583326 0
0.416666 0.541659 0
0.458332 0.541659 0
0.416666 0.583326 0
0.458332 0.583326 0
0.416666 0.499992 0
0.458332 0.499992 0
0.416666 0.541659 0
0.458332 0.541659 0
0.458332 0.499992 0
0.499999 0.499992 0
0.458332 0.541659 0
0.499999 0.541659 0
0.541666 0.624993 0
0.583332 0.624993 0
0.541666 0.66666 0
0.583332 0.66666 0
0.499999 0.624993 0
0.541666 0.624993 0
0.499999 0.66666 0
0.541666 0.66666 0
0.499999 0.583326 0
0.541666 0.583326 0
0.499999 0.624993 0
0.541666 0.624993 0
0.541666 0.583326 0
0.583332 0.583326 0
0.541666 0.624993 0
0.583332 0.624993 0
0.499999 0.541659 0
0.541666 0.541659 0
0.499999 0.583326 0
0.541666 0.583326 0
0.499999 0.499992 0
0.541666 0.499992 0
0.499999 0.541659 0
0.541666 0.541659 0
0.541666 0.499992 0
0.583332 0.499992 0
0.541666 0.541659 0
0.583332 0.541659 0
0.541666 0.541659 0
0.583332 0.541659 0
0.541666 0.583326 0
0.583332 0.583326 0
0.499999 0.458326 0
0.499999 0.416659 0
0.541666 0.458326 0
0.541666 0.416659 0
0.541666 0.458326 0
0.541666 0.416659 0
0.583332 0.458326 0
0.583332 0.416659 0
0.541666 0.499992 0
0.541666 0.458326 0
0.583332 0.499992 0
0.583332 0.458326 0
0.499999 0.499992 0
0.499999 0.458326 0
0.541666 0.499992 0
0.541666 0.458326 0
0.499999 0.374993 0
0.541666 0.374993 0
0.499999 0.416659 0
0.541666 0.416659 0
0.499999 0.333326 0
0.541666 0.333326 0
0.499999 0.374993 0
0.541666 0.374993 0
0.541666 0.333326 0
0.583332 0.333327 0
0.541666 0.374993 0
0.583332 0.374993 0
0.541666 0.374993 0
0.583332 0.374993 0
0.541666 0.416659 0
0.583332 0.416659 0
0.458332 0.499992 0
0.458332 0.458326 0
0.499999 0.499992 0
0.499999 0.458326 0
0.416666 0.499992 0
0.416666 0.458326 0
0.458332 0.499992 0
0.458332 0.458326 0
0.416666 0.458326 0
0.416666 0.416659 0
0.458332 0.458326 0
0.458332 0.416659 0
0.458332 0.458326 0
0.458332 0.416659 0
0.499999 0.458326 0
0.499999 0.416659 0
0.541666 0.333326 0
0.541666 0.29166 0
0.583332 0.333327 0
0.583333 0.29166 0
0.499999 0.333326 0
0.499999 0.29166 0
0.541666 0.333326 0
0.541666 0.29166 0
0.125 0.208331 0
0.125 0.166665 0
0.166666 0.208331 0
0.166666 0.166664 0
0.125 0.249998 0
0.125 0.208331 0
0.166666 0.249997 0
0.166666 0.208331 0
0.0833331 0.249998 0
0.0833331 0.208332 0
0.125 0.249998 0
0.125 0.208331 0
0.0833331 0.208332 0
0.0833332 0.166666 0
0.125 0.208331 0
0.125 0.166665 0
0.708333 0.458327 0
0.708333 0.41666 0
0.749999 0.458328 0
0.749999 0.416661 0
0.708332 0.499994 0
0.708333 0.458327 0
0.749999 0.499994 0
0.749999 0.458328 0
0.666666 0.499993 0
0.666666 0.458327 0
0.708332 0.499994 0
0.708333 0.458327 0
0.666666 0.458327 0
0.666666 0.41666 0
0.708333 0.458327 0
0.708333 0.41666 0
0.416666 0.583326 0
0.458332 0.583326 0
0.416666 0.624993 0
0.458332 0.624993 0
0.458332 0.583326 0
0.499999 0.583326 0
0.458332 0.624993 0
0.499999 0.624993 0
0.458332 0.624993 0
0.499999 0.624993 0
0.458332 0.66666 0
0.499999 0.66666 0
0.416666 0.624993 0
0.458332 0.624993 0
0.416666 0.66666 0
0.458332 0.66666 0
0.458333 0.708327 0
0.499999 0.708327 0
0.458333 0.749994 0
0.499999 0.749994 0
0.416666 0.708327 0
0.458333 0.708327 0
0.416666 0.749994 0
0.458333 0.749994 0
0.416666 0.66666 0
0.458332 0.66666 0
0.416666 0.708327 0
0.458333 0.708327 0
0.458332 0.66666 0
0.499999 0.66666 0
0.458333 0.708327 0
0.499999 0.708327 0
0.458332 0.333326 0
0.499999 0.333326 0
0.458332 0.374993 0
0.499999 0.374993 0
0.458332 0.374993 0
0.499999 0.374993 0
0.458332 0.416659 0
0.499999 0.416659 0
0.416666 0.374993 0
0.458332 0.374993 0
0.416666 0.416659 0
0.458332 0.416659 0
0.416666 0.333327 0
0.458332 0.333326 0
0.416666 0.374993 0
0.458332 0.374993 0
0.374999 0.374993 0
0.374999 0.416659 0
0.333332 0.374993 0
0.333332 0.41666 0
0.374999 0.333327 0
0.374999 0.374993 0
0.333333 0.333327 0
0.333332 0.374993 0
0.416666 0.333327 0
0.416666 0.374993 0
0.374999 0.333327 0
0.374999 0.374993 0
0.416666 0.374993 0
0.416666 0.416659 0
0.374999 0.374993 0
0.374999 0.416659 0
0.791666 0.749997 0
0.791666 0.791664 0
0.749999 0.749996 0
0.75 0.791663 0
0.291666 0.624994 0
0.291666 0.666661 0
0.249999 0.624995 0
0.249999 0.666662 0
0.291666 0.583327 0
0.291666 0.624994 0
0.249999 0.583328 0
0.249999 0.624995 0
0.333332 0.583326 0
0.333332 0.624994 0
0.291666 0.583327 0
0.291666 0.624994 0
0.333332 0.624994 0
0.333333 0.666661 0
0.291666 0.624994 0
0.291666 0.666661 0
0.416666 0.333327 0
0.374999 0.333327 0
0.416666 0.29166 0
0.374999 0.291661 0
0.624999 0.66666 0
0.624999 0.708328 0
0.583332 0.66666 0
0.583333 0.708327 0
0.666666 0.666661 0
0.666666 0.708328 0
0.624999 0.66666 0
0.624999 0.708328 0
0.666666 0.708328 0
0.666666 0.749995 0
0.624999 0.708328 0
0.624999 0.749995 0
0.624999 0.708328 0
0.624999 0.749995 0
0.583333 0.708327 0
0.583333 0.749995 0
0.541667 0.0416655 0
0.541667 0 0
0.583333 0.0416656 0
0.583333 0 0
0.541666 0.0833311 0
0.541667 0.0416655 0
0.583333 0.0833311 0
0.583333 0.0416656 0
0.5 0.0833311 0
0.5 0.0416655 0
0.541666 0.0833311 0
0.541667 0.0416655 0
0.5 0.0416655 0
0.5 0 0
0.541667 0.0416655 0
0.541667 0 0
0.666666 0.374994 0
0.708333 0.374994 0
0.666666 0.41666 0
0.708333 0.41666 0
0.791666 0.70833 0
0.791666 0.749997 0
0.749999 0.708329 0
0.749999 0.749996 0
0.791666 0.666663 0
0.791666 0.70833 0
0.749999 0.666662 0
0.749999 0.708329 0
0.666666 0.458327 0
0.624999 0.458326 0
0.666666 0.41666 0
0.624999 0.41666 0
0.666666 0.499993 0
0.624999 0.499993 0
0.666666 0.458327 0
0.624999 0.458326 0
0.624999 0.499993 0
0.583332 0.499992 0
0.624999 0.458326 0
0.583332 0.458326 0
0.624999 0.458326 0
0.583332 0.458326 0
0.624999 0.41666 0
0.583332 0.416659 0
0.291666 0.499994 0
0.249999 0.499994 0
0.291666 0.458327 0
0.249999 0.458327 0
0.333332 0.458326 0
0.291666 0.458327 0
0.333332 0.41666 0
0.291666 0.41666 0
0.333332 0.499993 0
0.291666 0.499994 0
0.333332 0.458326 0
0.291666 0.458327 0
0.708333 0.666661 0
0.749999 0.666662 0
0.708333 0.708328 0
0.749999 0.708329 0
0.708333 0.708328 0
0.749999 0.708329 0
0.708333 0.749996 0
0.749999 0.749996 0
0.666666 0.708328 0
0.708333 0.708328 0
0.666666 0.749995 0
0.708333 0.749996 0
0.666666 0.666661 0
0.708333 0.666661 0
0.666666 0.708328 0
0.708333 0.708328 0
0.374999 0.749995 0
0.374999 0.791662 0
0.333333 0.749995 0
0.333333 0.791662 0
0.416666 0.749994 0
0.416666 0.791662 0
0.374999 0.749995 0
0.374999 0.791662 0
0.416666 0.0833311 0
0.375 0.0833312 0
0.416667 0.0416656 0
0.375 0.0416656 0
0.375 0.0833312 0
0.333333 0.0833314 0
0.375 0.0416656 0
0.333333 0.0416657 0
0.375 0.0416656 0
0.333333 0.0416657 0
0.375 0 0
0.333333 0 0
0.416667 0.0416656 0
0.375 0.0416656 0
0.416667 0 0
0.375 0 0
0.416666 0.749994 0
0.458333 0.749994 0
0.416666 0.791662 0
0.458333 0.791662 0
0.458333 0.749994 0
0.499999 0.749994 0
0.458333 0.791662 0
0.499999 0.791662 0
0.458333 0.791662 0
0.499999 0.791662 0
0.458333 0.833329 0
0.499999 0.833329 0
0.666666 0.624994 0
0.708333 0.624994 0
0.666666 0.666661 0
0.708333 0.666661 0
0.666666 0.583327 0
0.708333 0.583327 0
0.666666 0.624994 0
0.708333 0.624994 0
0.708333 0.583327 0
0.749999 0.583328 0
0.708333 0.624994 0
0.749999 0.624995 0
0.708333 0.624994 0
0.749999 0.624995 0
0.708333 0.666661 0
0.749999 0.666662 0
0.791666 0.624996 0
0.791666 0.666663 0
0.749999 0.624995 0
0.749999 0.666662 0
0.791666 0.583329 0
0.791666 0.624996 0
0.749999 0.583328 0
0.749999 0.624995 0
0.374999 0.499993 0
0.333332 0.499993 0
0.374999 0.458326 0
0.333332 0.458326 0
0.374999 0.458326 0
0.333332 0.458326 0
0.374999 0.416659 0
0.333332 0.41666 0
0.416666 0.458326 0
0.374999 0.458326 0
0.416666 0.416659 0
0.374999 0.416659 0
0.416666 0.499992 0
0.374999 0.499993 0
0.416666 0.458326 0
0.374999 0.458326 0
0.624999 0.54166 0
0.624999 0.583326 0
0.583332 0.541659 0
0.583332 0.583326 0
0.624999 0.499993 0
0.624999 0.54166 0
0.583332 0.499992 0
0.583332 0.541659 0
0.666666 0.499993 0
0.666666 0.54166 0
0.624999 0.499993 0
0.624999 0.54166 0
0.666666 0.54166 0
0.666666 0.583327 0
0.624999 0.54166 0
0.624999 0.583326 0
0.624999 0.333327 0
0.624999 0.374993 0
0.583332 0.333327 0
0.583332 0.374993 0
0.666666 0.333327 0
0.666666 0.374994 0
0.624999 0.333327 0
0.624999 0.374993 0
0.666666 0.374994 0
0.666666 0.41666 0
0.624999 0.374993 0
0.624999 0.41666 0
0.624999 0.374993 0
0.624999 0.41666 0
0.583332 0.374993 0
0.583332 0.416659 0
0.416666 0.499992 0
0.416666 0.541659 0
0.374999 0.499993 0
0.374999 0.541659 0
0.416666 0.541659 0
0.416666 0.583326 0
0.374999 0.541659 0
0.374999 0.583326 0
0.374999 0.541659 0
0.374999 0.583326 0
0.333332 0.54166 0
0.333332 0.583326 0
0.374999 0.499993 0
0.374999 0.541659 0
0.333332 0.499993 0
0.333332 0.54166 0
0.416666 0.624993 0
0.416666 0.66666 0
0.374999 0.624993 0
0.374999 0.66666 0
0.374999 0.624993 0
0.374999 0.66666 0
0.333332 0.624994 0
0.333333 0.666661 0
0.374999 0.583326 0
0.374999 0.624993 0
0.333332 0.583326 0
0.333332 0.624994 0
0.416666 0.583326 0
0.416666 0.624993 0
0.374999 0.583326 0
0.374999 0.624993 0
0.666666 0.54166 0
0.708333 0.541661 0
0.666666 0.583327 0
0.708333 0.583327 0
0.666666 0.499993 0
0.708332 0.499994 0
0.666666 0.54166 0
0.708333 0.541661 0
0.708332 0.499994 0
0.749999 0.499994 0
0.708333 0.541661 0
0.749999 0.541661 0
0.708333 0.541661 0
0.749999 0.541661 0
0.708333 0.583327 0
0.749999 0.583328 0
0.458332 0.333326 0
0.458332 0.29166 0
0.499999 0.333326 0
0.499999 0.29166 0
0.416666 0.333327 0
0.416666 0.29166 0
0.458332 0.333326 0
0.458332 0.29166 0
0.416666 0.708327 0
0.416666 0.749994 0
0.374999 0.708328 0
0.374999 0.749995 0
0.374999 0.708328 0
0.374999 0.749995 0
0.333333 0.708328 0
0.333333 0.749995 0
0.374999 0.66666 0
0.374999 0.708328 0
0.333333 0.666661 0
0.333333 0.708328 0
0.416666 0.66666 0
0.416666 0.708327 0
0.374999 0.66666 0
0.374999 0.708328 0
0.666666 0.583327 0
0.666666 0.624994 0
0.624999 0.583326 0
0.624999 0.624993 0
0.666666 0.624994 0
0.666666 0.666661 0
0.624999 0.624993 0
0.624999 0.66666 0
[...]
POINT_DATA 38916
SCALARS solution_0 double 1
LOOKUP_TABLE default
-0.0313582 -0.0355242 0.0112037 0.00725396 -0.0277856 -0.0313582 0.0143947 0.0112037 -0.069451 -0.073074 -0.0277856 -0.0313582 -0.073074 -0.0772181 -0.0313582 -0.0355242 0.0466168 0.0400991 0.0930453 0.0861782 0.0515118 0.0466168 0.0977689 0.0930453 0.00725396 0.00231253 0.0515118 0.0466168 0.00231253 -0.00379933 0.0466168 0.0400991 -0.0355242 -0.0403888 0.00725396 0.00231253 -0.0772181 -0.0818331 -0.0355242 -0.0403888 -0.0818331 -0.0868393 -0.0403888 -0.046006 -0.0403888 -0.046006 0.00231253 -0.00379933 -0.118266 -0.159675 -0.122386 -0.163095 -0.122386 -0.163095 -0.126687 -0.166807 -0.0818331 -0.122386 -0.0868393 -0.126687 -0.0772181 -0.118266 -0.0818331 -0.122386 -0.203441 -0.206244 -0.159675 -0.163095 -0.251439 -0.254276 -0.203441 -0.206244 -0.254276 -0.258261 -0.206244 -0.20992 -0.206244 -0.20992 -0.163095 -0.166807 -0.073074 -0.114505 -0.0772181 -0.118266 -0.069451 -0.111279 -0.073074 -0.114505 -0.111279 -0.154298 -0.114505 -0.156701 -0.114505 -0.156701 -0.118266 -0.159675 -0.254276 -0.305179 -0.258261 -0.3095 -0.251439 -0.301513 -0.254276 -0.305179 -0.0700575 -0.0507831 -0.110013 -0.0837715 -0.0838284 -0.0700575 -0.127734 -0.110013 -0.0456712 -0.0368753 -0.0838284 -0.0700575 -0.0368753 -0.0250906 -0.0700575 -0.0507831 -0.141529 -0.183676 -0.150289 -0.19459 -0.103329 -0.141529 -0.110727 -0.150289 -0.0974967 -0.135667 -0.103329 -0.141529 -0.135667 -0.176157 -0.141529 -0.183676 0.0143947 0.0112037 0.0575929 0.0550673 0.0112037 0.00725396 0.0550673 0.0515118 0.0550673 0.0515118 0.100708 0.0977689 0.0575929 0.0550673 0.102175 0.100708 0.148378 0.146445 0.197511 0.197251 0.148126 0.148378 0.19447 0.197511 0.102175 0.100708 0.148126 0.148378 0.100708 0.0977689 0.148378 0.146445 -0.24939 -0.251439 -0.201327 -0.203441 -0.201327 -0.203441 -0.156701 -0.159675 -0.199675 -0.201327 -0.154298 -0.156701 -0.24729 -0.24939 -0.199675 -0.201327 -0.197674 -0.152251 -0.193662 -0.149507 -0.243584 -0.197674 -0.236314 -0.193662 -0.24729 -0.199675 -0.243584 -0.197674 -0.199675 -0.154298 -0.197674 -0.152251 0.079441 0.117164 0.110832 0.153397 0.0591677 0.0967849 0.0565741 0.0903044 0.0201677 0.0591677 0.0205322 0.0565741 0.0189948 0.0599707 0.0201677 0.0591677 0.0599707 0.100678 0.0591677 0.0967849 -0.24729 -0.243584 -0.293213 -0.285522 0.0768525 0.124523 0.0861782 0.134918 0.0648367 0.1105 0.0768525 0.124523 0.1105 0.158597 0.124523 0.174779 0.124523 0.174779 0.134918 0.186276 -0.0916794 0 -0.0805554 0 -0.173577 -0.0916794 -0.156765 -0.0805554 -0.180519 -0.0958225 -0.173577 -0.0916794 -0.0958225 0 -0.0916794 0 -0.221554 -0.230685 -0.176157 -0.183676 0.0449903 0.079441 0.070671 0.110832 0.0121976 0.0449903 0.0325219 0.070671 -0.135667 -0.131067 -0.176157 -0.170922 -0.0974967 -0.0920976 -0.135667 -0.131067 -0.0920976 -0.0868393 -0.131067 -0.126687 -0.131067 -0.126687 -0.170922 -0.166807 -0.0605234 -0.0560658 -0.102115 -0.0956157 -0.105964 -0.102115 -0.149507 -0.144136 -0.0635931 -0.0605234 -0.105964 -0.102115 0.0500348 0.0325219 0.0925659 0.070671 0.0925659 0.070671 0.137324 0.110832 0.1105 0.0925659 0.158597 0.137324 0.0648367 0.0500348 0.1105 0.0925659 0.18793 0.227346 0.177593 0.210656 0.19447 0.239037 0.18793 0.227346 -0.166427 -0.147305 -0.0845067 -0.0715731 -0.147305 -0.122834 -0.0715731 -0.0561153 -0.0715731 -0.0561153 0 0 -0.0845067 -0.0715731 0 0 0.19447 0.197511 0.239037 0.24596 0.197511 0.197251 0.24596 0.248366 0.24596 0.248366 0.290881 0.296787 0.0215905 0.00963324 0.0648367 0.0500348 -0.0195957 -0.0289887 0.0215905 0.00963324 -0.0289887 -0.0394858 0.00963324 -0.00402637 0.00963324 -0.00402637 0.0500348 0.0325219 -0.0199028 0.0121976 -0.00402637 0.0325219 -0.0521 -0.0199028 -0.0394858 -0.00402637 -0.0663569 -0.0635931 -0.108597 -0.105964 -0.108597 -0.105964 -0.152251 -0.149507 -0.111279 -0.108597 -0.154298 -0.152251 -0.069451 -0.0663569 -0.111279 -0.108597 -0.0523142 -0.0111346 -0.046006 -0.00379933 -0.0920976 -0.0523142 -0.0868393 -0.046006 -0.0974967 -0.0591334 -0.0920976 -0.0523142 -0.0591334 -0.0195957 -0.0523142 -0.0111346 -0.264005 -0.21481 -0.258261 -0.20992 -0.271653 -0.221554 -0.264005 -0.21481 -0.221554 -0.176157 -0.21481 -0.170922 -0.21481 -0.170922 -0.20992 -0.166807 -0.069451 -0.0277856 -0.0663569 -0.0247224 -0.0277856 0.0143947 -0.0247224 0.0169956 -0.0247224 0.0169956 -0.0220923 0.0189948 -0.0663569 -0.0247224 -0.0635931 -0.0220923 0.0575929 0.102175 0.0592644 0.102268 0.0592644 0.102268 0.0599707 0.100678 0.0169956 0.0592644 0.0189948 0.0599707 0.0143947 0.0575929 0.0169956 0.0592644 -0.0591334 -0.0663774 -0.0195957 -0.0289887 -0.0974967 -0.103329 -0.0591334 -0.0663774 -0.103329 -0.110727 -0.0663774 -0.0746668 -0.0663774 -0.0746668 -0.0289887 -0.0394858 -0.24939 -0.298012 -0.251439 -0.301513 -0.24729 -0.293213 -0.24939 -0.298012 0.148126 0.19447 0.145636 0.18793 0.145636 0.18793 0.140431 0.177593 0.102268 0.145636 0.100678 0.140431 0.102175 0.148126 0.102268 0.145636 -0.0195957 0.0215905 -0.0111346 0.0317755 0.0215905 0.0648367 0.0317755 0.0768525 0.0317755 0.0768525 0.0400991 0.0861782 -0.0111346 0.0317755 -0.00379933 0.0400991 0.0977689 0.0930453 0.146445 0.142085 0.0930453 0.0861782 0.142085 0.134918 0.142085 0.134918 0.193611 0.186276 0.146445 0.142085 0.197251 0.193611 0.140431 0.177593 0.131968 0.163467 0.100678 0.140431 0.0967849 0.131968 -0.0635931 -0.0220923 -0.0605234 -0.019763 -0.0220923 0.0189948 -0.019763 0.0201677 -0.019763 0.0201677 -0.0172105 0.0205322 -0.0605234 -0.019763 -0.0560658 -0.0172105 -0.166427 -0.0845067 -0.177962 -0.0931693 -0.0845067 0 -0.0931693 0 -0.0931693 0 -0.0958225 0 -0.177962 -0.0931693 -0.180519 -0.0958225 0.246118 0.238996 0.296549 0.290341 0.248366 0.246118 0.296787 0.296549 0.197251 0.193611 0.248366 0.246118 0.193611 0.186276 0.246118 0.238996 0.226596 0.277806 0.238996 0.290341 0.174779 0.226596 0.186276 0.238996 0.158597 0.208426 0.174779 0.226596 0.208426 0.25868 0.226596 0.277806 0.184015 0.153397 0.23276 0.199898 0.208426 0.184015 0.25868 0.23276 0.158597 0.137324 0.208426 0.184015 0.137324 0.110832 0.184015 0.153397 0.252433 0.227551 0.25009 0.227796 0.227551 0.20078 0.227796 0.203643 0.25009 0.227796 0.248134 0.228209 0.227796 0.203643 0.228209 0.206517 0.20078 0.172313 0.203643 0.177831 0.172313 0.142429 0.177831 0.150643 0.203643 0.177831 0.206517 0.183251 0.177831 0.150643 0.183251 0.158679 0.142429 0.111522 0.150643 0.122469 0.111522 0.0801351 0.122469 0.0938338 0.150643 0.122469 0.158679 0.133159 0.122469 0.0938338 0.133159 0.10716 0.0801351 0.0489927 0.0938338 0.0654381 0.0489927 0.0190642 0.0654381 0.0382086 0.0938338 0.0654381 0.10716 0.0812963 0.0654381 0.0382086 0.0812963 0.0563675 0.33131 0.314752 0.318776 0.304759 0.314752 0.296085 0.304759 0.28863 0.318776 0.304759 0.308295 0.296271 0.304759 0.28863 0.296271 0.282226 0.296085 0.275302 0.28863 0.270395 0.275302 0.252433 0.270395 0.25009 0.28863 0.270395 0.282226 0.266167 0.270395 0.25009 0.266167 0.248134 0.0446388 0.0600202 0.0625502 0.0794664 0.0600202 0.0766716 0.0794664 0.0974006 0.0625502 0.0794664 0.079441 0.0983023 0.0794664 0.0974006 0.0983023 0.117164 0.0766716 0.0955411 0.0974006 0.117314 0.0955411 0.117903 0.117314 0.140402 0.0974006 0.117314 0.117164 0.138099 0.117314 0.140402 0.138099 0.161466 0.117164 0.138099 0.13528 0.157973 0.138099 0.161466 0.157973 0.181329 0.13528 0.157973 0.153397 0.176647 0.157973 0.181329 0.176647 0.199898 -0.12247 -0.107903 -0.114992 -0.098348 -0.107903 -0.0938571 -0.098348 -0.0825769 -0.114992 -0.098348 -0.104391 -0.0870454 -0.098348 -0.0825769 -0.0870454 -0.0704814 -0.0316993 -0.0076697 -0.00837733 0.013345 -0.0076697 0.0136303 0.013345 0.033397 -0.00837733 0.013345 0.0190642 0.0382086 0.013345 0.033397 0.0382086 0.0563675 -0.0574316 -0.031122 -0.0489294 -0.0231117 -0.031122 -0.0107944 -0.0231117 -0.00155702 -0.0489294 -0.0231117 -0.0316993 -0.0076697 -0.0231117 -0.00155702 -0.0076697 0.0136303 -0.281729 -0.285524 -0.256659 -0.262359 -0.285524 -0.28696 -0.262359 -0.266984 -0.256659 -0.262359 -0.230685 -0.23733 -0.262359 -0.266984 -0.23733 -0.243763 -0.0610101 -0.0988856 -0.0505035 -0.0844732 -0.0988856 -0.1424 -0.0844732 -0.124979 -0.0505035 -0.0844732 -0.040836 -0.070142 -0.0844732 -0.124979 -0.070142 -0.106749 0.223228 0.241717 0.188795 0.208475 0.241717 0.258434 0.208475 0.226612 0.188795 0.208475 0.161466 0.181329 0.208475 0.226612 0.181329 0.199898 -0.0116744 0.00216785 0.000843444 0.0159511 0.00216785 0.016024 0.0159511 0.0310019 0.000843444 0.0159511 0.0121976 0.0285939 0.0159511 0.0310019 0.0285939 0.0449903 0.016024 0.0300977 0.0310019 0.0465943 0.0300977 0.0446388 0.0465943 0.0625502 0.0310019 0.0465943 0.0449903 0.0622156 0.0465943 0.0625502 0.0622156 0.079441 -0.250818 -0.231425 -0.249 -0.226312 -0.231425 -0.20989 -0.226312 -0.202698 -0.249 -0.226312 -0.243763 -0.219293 -0.226312 -0.202698 -0.219293 -0.19459 -0.180019 -0.173551 -0.197969 -0.194592 -0.173551 -0.165054 -0.194592 -0.187411 -0.197969 -0.194592 -0.21391 -0.214862 -0.194592 -0.187411 -0.214862 -0.20989 -0.141433 -0.132107 -0.160819 -0.152476 -0.132107 -0.123319 -0.152476 -0.143627 -0.160819 -0.152476 -0.180019 -0.173551 -0.152476 -0.143627 -0.173551 -0.165054 -0.0704814 -0.0549148 -0.0605364 -0.044537 -0.0549148 -0.040092 -0.044537 -0.0292417 -0.0605364 -0.044537 -0.0521 -0.0360014 -0.044537 -0.0292417 -0.0360014 -0.0199028 -0.040092 -0.0257118 -0.0292417 -0.0140333 -0.0257118 -0.0116744 -0.0140333 0.000843444 -0.0292417 -0.0140333 -0.0199028 -0.0038526 -0.0140333 0.000843444 -0.0038526 0.0121976 -0.315328 -0.312417 -0.337279 -0.335425 -0.312417 -0.3095 -0.335425 -0.333432 -0.337279 -0.335425 -0.352009 -0.352267 -0.335425 -0.333432 -0.352267 -0.351619 -0.271653 -0.297768 -0.276892 -0.301475 -0.297768 -0.320593 -0.301475 -0.321883 -0.276892 -0.301475 -0.281729 -0.304191 -0.301475 -0.321883 -0.304191 -0.320975 0.33131 0.318776 0.345797 0.330686 0.318776 0.308295 0.330686 0.318335 0.345797 0.330686 0.357967 0.340455 0.330686 0.318335 0.340455 0.326502 0.326502 0.309877 0.332688 0.314886 0.309877 0.290881 0.314886 0.293834 0.332688 0.314886 0.337117 0.31796 0.314886 0.293834 0.31796 0.296787 0.310198 0.283426 0.299489 0.27176 0.283426 0.25868 0.27176 0.24572 0.299489 0.27176 0.287342 0.25824 0.27176 0.24572 0.25824 0.23276 0.287342 0.25824 0.273612 0.243395 0.25824 0.23276 0.243395 0.216329 0.273612 0.243395 0.258434 0.226612 0.243395 0.216329 0.226612 0.199898 0.310198 0.319276 0.283426 0.293691 0.319276 0.326845 0.293691 0.302035 0.283426 0.293691 0.25868 0.268243 0.293691 0.302035 0.268243 0.277806 0.326845 0.332721 0.302035 0.308933 0.332721 0.337023 0.308933 0.313957 0.302035 0.308933 0.277806 0.284074 0.308933 0.313957 0.284074 0.290341 0.337117 0.31796 0.339673 0.319508 0.31796 0.296787 0.319508 0.296668 0.339673 0.319508 0.340522 0.31925 0.319508 0.296668 0.31925 0.296549 0.340522 0.31925 0.339587 0.31752 0.31925 0.296549 0.31752 0.293445 0.339587 0.31752 0.337023 0.313957 0.31752 0.293445 0.313957 0.290341 -0.106749 -0.147973 -0.0885967 -0.126248 -0.147973 -0.190445 -0.126248 -0.166867 -0.0885967 -0.126248 -0.0715301 -0.104529 -0.126248 -0.166867 -0.104529 -0.141803 -0.040836 -0.070142 -0.032253 -0.0567288 -0.070142 -0.106749 -0.0567288 -0.0885967 -0.032253 -0.0567288 -0.0247177 -0.0447352 -0.0567288 -0.0885967 -0.0447352 -0.0715301 -0.141433 -0.122527 -0.132107 -0.112702 -0.122527 -0.104391 -0.112702 -0.0943592 -0.132107 -0.112702 -0.123319 -0.104217 -0.112702 -0.0943592 -0.104217 -0.0861011 -0.104391 -0.0870454 -0.0943592 -0.0769967 -0.0870454 -0.0704814 -0.0769967 -0.0605364 -0.0943592 -0.0769967 -0.0861011 -0.0688605 -0.0769967 -0.0605364 -0.0688605 -0.0521 -0.34843 -0.33897 -0.35399 -0.344859 -0.33897 -0.319235 -0.344859 -0.324945 -0.35399 -0.344859 -0.358328 -0.349179 -0.344859 -0.324945 -0.349179 -0.328606 -0.337117 -0.347406 -0.340833 -0.352162 -0.347406 -0.34843 -0.352162 -0.35399 -0.340833 -0.352162 -0.343961 -0.356114 -0.352162 -0.35399 -0.356114 -0.358328 -0.326763 -0.333941 -0.332491 -0.341374 -0.333941 -0.332404 -0.341374 -0.341245 -0.332491 -0.341374 -0.337117 -0.347406 -0.341374 -0.341245 -0.347406 -0.34843 -0.0247177 -0.0447352 -0.0185884 -0.0342973 -0.0447352 -0.0715301 -0.0342973 -0.0561708 -0.0185884 -0.0342973 -0.0133819 -0.0254801 -0.0342973 -0.0561708 -0.0254801 -0.0427666 -0.326763 -0.319616 -0.333941 -0.324899 -0.319616 -0.310858 -0.324899 -0.314066 -0.333941 -0.324899 -0.332404 -0.321777 -0.324899 -0.314066 -0.321777 -0.309292 -0.00387479 -0.0114715 -0.00274161 -0.00839815 -0.0114715 -0.0247177 -0.00839815 -0.0185884 -0.00274161 -0.00839815 -0.00177577 -0.00579268 -0.00839815 -0.0185884 -0.00579268 -0.0133819 0 -0.00058611 0 -0.000477656 -0.00058611 -0.00387479 -0.000477656 -0.00274161 0 -0.000477656 0 -0.000233591 -0.000477656 -0.00274161 -0.000233591 -0.00177577 -0.211945 -0.172328 -0.184336 -0.146851 -0.172328 -0.134135 -0.146851 -0.111707 -0.184336 -0.146851 -0.155607 -0.121255 -0.146851 -0.111707 -0.121255 -0.0898325 -0.134135 -0.099165 -0.111707 -0.0801602 -0.099165 -0.0685694 -0.0801602 -0.0530194 -0.111707 -0.0801602 -0.0898325 -0.0621153 -0.0801602 -0.0530194 -0.0621153 -0.0386473 -0.305179 -0.329109 -0.30734 -0.331161 -0.329109 -0.348488 -0.331161 -0.350295 -0.30734 -0.331161 -0.3095 -0.333432 -0.331161 -0.350295 -0.333432 -0.351619 -0.0956157 -0.0906013 -0.11524 -0.109154 -0.0906013 -0.0845004 -0.109154 -0.101629 -0.11524 -0.109154 -0.134425 -0.127142 -0.109154 -0.101629 -0.127142 -0.118065 -0.0560658 -0.0529634 -0.0758408 -0.0719359 -0.0529634 -0.0492857 -0.0719359 -0.0669762 -0.0758408 -0.0719359 -0.0956157 -0.0906013 -0.0719359 -0.0669762 -0.0906013 -0.0845004 -0.0492857 -0.0446873 -0.0669762 -0.0609927 -0.0446873 -0.0392503 -0.0609927 -0.0539442 -0.0669762 -0.0609927 -0.0845004 -0.0770328 -0.0609927 -0.0539442 -0.0770328 -0.0683053 -0.0845004 -0.0770328 -0.101629 -0.092565 -0.0770328 -0.0683053 -0.092565 -0.0820765 -0.101629 -0.092565 -0.118065 -0.107275 -0.092565 -0.0820765 -0.107275 -0.0949653 0.10716 0.0812963 0.117433 0.0940098 0.0812963 0.0563675 0.0940098 0.071192 0.117433 0.0940098 0.124338 0.103266 0.0940098 0.071192 0.103266 0.0824488 0.158679 0.133159 0.163694 0.140827 0.133159 0.10716 0.140827 0.117433 0.163694 0.140827 0.165477 0.145204 0.140827 0.117433 0.145204 0.124338 0 0 -0.00359356 -0.00119085 0 0 -0.00119085 0.000218742 -0.00359356 -0.00119085 -0.0103319 -0.00282001 -0.00119085 0.000218742 -0.00282001 0.00195387 -0.0103319 -0.00282001 -0.0137315 -0.00160367 -0.00282001 0.00195387 -0.00160367 0.00672457 -0.0137315 -0.00160367 -0.0107944 0.00423588 -0.00160367 0.00672457 0.00423588 0.0154284 -0.0261199 -0.0371472 -0.033015 -0.0459334 -0.0371472 -0.0477952 -0.0459334 -0.0584767 -0.033015 -0.0459334 -0.0392503 -0.0539442 -0.0459334 -0.0584767 -0.0539442 -0.0683053 -0.0117233 -0.0186984 -0.0188473 -0.0278942 -0.0186984 -0.0254189 -0.0278942 -0.036601 -0.0188473 -0.0278942 -0.0261199 -0.0371472 -0.0278942 -0.036601 -0.0371472 -0.0477952 -0.285522 -0.278955 -0.300631 -0.292264 -0.278955 -0.27086 -0.292264 -0.281934 -0.300631 -0.292264 -0.310858 -0.300206 -0.292264 -0.281934 -0.300206 -0.287542 -0.293213 -0.289368 -0.312436 -0.307312 -0.289368 -0.285522 -0.307312 -0.300631 -0.312436 -0.307312 -0.326763 -0.319616 -0.307312 -0.300631 -0.319616 -0.310858 -0.0107944 0.00423588 -0.00155702 0.0152339 0.00423588 0.0154284 0.0152339 0.0280693 -0.00155702 0.0152339 0.0136303 0.0307668 0.0152339 0.0280693 0.0307668 0.0440479 0.0136303 0.0307668 0.033397 0.0497836 0.0307668 0.0440479 0.0497836 0.062466 0.033397 0.0497836 0.0563675 0.071192 0.0497836 0.062466 0.071192 0.0824488 -0.324879 -0.29661 -0.306672 -0.275274 -0.29661 -0.26012 -0.275274 -0.237455 -0.306672 -0.275274 -0.284316 -0.250374 -0.275274 -0.237455 -0.250374 -0.211945 -0.284316 -0.250374 -0.257545 -0.222166 -0.250374 -0.211945 -0.222166 -0.184336 -0.257545 -0.222166 -0.226895 -0.19154 -0.222166 -0.184336 -0.19154 -0.155607 -0.222394 -0.204827 -0.212238 -0.196715 -0.204827 -0.185433 -0.196715 -0.179022 -0.212238 -0.196715 -0.199809 -0.186365 -0.196715 -0.179022 -0.186365 -0.170558 -0.295735 -0.308543 -0.256757 -0.271089 -0.308543 -0.318126 -0.271089 -0.282356 -0.256757 -0.271089 -0.214273 -0.229065 -0.271089 -0.282356 -0.229065 -0.24118 -0.0508332 -0.0693067 -0.0312498 -0.0456428 -0.0693067 -0.0898325 -0.0456428 -0.0621153 -0.0312498 -0.0456428 -0.0151728 -0.0259136 -0.0456428 -0.0621153 -0.0259136 -0.0386473 -0.022019 -0.0349571 -0.00996426 -0.0192954 -0.0349571 -0.0508332 -0.0192954 -0.0312498 -0.00996426 -0.0192954 -0.000408472 -0.00664645 -0.0192954 -0.0312498 -0.00664645 -0.0151728 -0.0528292 -0.0745251 -0.0363081 -0.0533762 -0.0745251 -0.0995266 -0.0533762 -0.0736427 -0.0363081 -0.0533762 -0.022019 -0.0349571 -0.0533762 -0.0736427 -0.0349571 -0.0508332 -0.0995266 -0.126929 -0.0736427 -0.0965357 -0.126929 -0.155607 -0.0965357 -0.121255 -0.0736427 -0.0965357 -0.0508332 -0.0693067 -0.0965357 -0.121255 -0.0693067 -0.0898325 -0.216879 -0.19823 -0.219286 -0.198974 -0.19823 -0.178061 -0.198974 -0.177448 -0.219286 -0.198974 -0.217055 -0.19549 -0.198974 -0.177448 -0.19549 -0.173067 -0.199809 -0.185171 -0.2102 -0.193493 -0.185171 -0.168561 -0.193493 -0.174997 -0.2102 -0.193493 -0.216879 -0.19823 -0.193493 -0.174997 -0.19823 -0.178061 -0.15881 -0.193474 -0.128188 -0.159714 -0.193474 -0.226895 -0.159714 -0.19154 -0.128188 -0.159714 -0.0995266 -0.126929 -0.159714 -0.19154 -0.126929 -0.155607 -0.0931348 -0.124811 -0.071743 -0.0984148 -0.124811 -0.15881 -0.0984148 -0.128188 -0.071743 -0.0984148 -0.0528292 -0.0745251 -0.0984148 -0.128188 -0.0745251 -0.0995266 -0.141803 -0.18101 -0.116762 -0.152808 -0.18101 -0.21956 -0.152808 -0.189897 -0.116762 -0.152808 -0.0931348 -0.124811 -0.152808 -0.189897 -0.124811 -0.15881 -0.147288 -0.133429 -0.132779 -0.120812 -0.133429 -0.118065 -0.120812 -0.107275 -0.132779 -0.120812 -0.116765 -0.106644 -0.120812 -0.107275 -0.106644 -0.0949653 -0.168561 -0.159165 -0.150333 -0.142758 -0.159165 -0.147288 -0.142758 -0.132779 -0.150333 -0.142758 -0.130928 -0.124972 -0.142758 -0.132779 -0.124972 -0.116765 -0.199809 -0.186365 -0.185171 -0.173798 -0.186365 -0.170558 -0.173798 -0.159954 -0.185171 -0.173798 -0.168561 -0.159165 -0.173798 -0.159954 -0.159165 -0.147288 -0.170558 -0.153056 -0.159954 -0.144226 -0.153056 -0.134425 -0.144226 -0.127142 -0.159954 -0.144226 -0.147288 -0.133429 -0.144226 -0.127142 -0.133429 -0.118065 0.0903044 0.105624 0.085532 0.0995462 0.105624 0.119891 0.0995462 0.112253 0.085532 0.0995462 0.0801647 0.0927086 0.0995462 0.112253 0.0927086 0.103805 0.119891 0.132736 0.112253 0.123395 0.132736 0.143902 0.123395 0.132685 0.112253 0.123395 0.103805 0.113211 0.123395 0.132685 0.113211 0.120636 0.103805 0.113211 0.0946168 0.102308 0.113211 0.120636 0.102308 0.107919 0.0946168 0.102308 0.0848048 0.0907924 0.102308 0.107919 0.0907924 0.0946441 0.0801647 0.0927086 0.0741461 0.0851407 0.0927086 0.103805 0.0851407 0.0946168 0.0741461 0.0851407 0.0675831 0.07698 0.0851407 0.0946168 0.07698 0.0848048 -0.0169217 -0.0172784 -0.0328418 -0.0332362 -0.0172784 -0.0166946 -0.0332362 -0.032617 -0.0328418 -0.0332362 -0.0510619 -0.0515918 -0.0332362 -0.032617 -0.0515918 -0.0508475 0.128295 0.127903 0.111621 0.109083 0.127903 0.124338 0.109083 0.103266 0.111621 0.109083 0.0946524 0.0902082 0.109083 0.103266 0.0902082 0.0824488 0.120636 0.125771 0.107919 0.111132 0.125771 0.128295 0.111132 0.111621 0.107919 0.111132 0.0946441 0.0960332 0.111132 0.111621 0.0960332 0.0946524 0.143902 0.153079 0.132685 0.139813 0.153079 0.159921 0.139813 0.144471 0.132685 0.139813 0.120636 0.125771 0.139813 0.144471 0.125771 0.128295 0.159921 0.164146 0.144471 0.146355 0.164146 0.165477 0.146355 0.145204 0.144471 0.146355 0.128295 0.127903 0.146355 0.145204 0.127903 0.124338 -0.222394 -0.212238 -0.237147 -0.224811 -0.212238 -0.199809 -0.224811 -0.2102 -0.237147 -0.224811 -0.248266 -0.233639 -0.224811 -0.2102 -0.233639 -0.216879 -0.248266 -0.233639 -0.254782 -0.237993 -0.233639 -0.216879 -0.237993 -0.219286 -0.254782 -0.237993 -0.256011 -0.237343 -0.237993 -0.219286 -0.237343 -0.217055 -0.27086 -0.260649 -0.281934 -0.2694