# vtk DataFile Version 3.0
#This file was generated by the deal.II library on 2020/11/21 at 16:09:26
ASCII
DATASET UNSTRUCTURED_GRID

POINTS 22496 double
2.3331 -0.170758 0
2.41241 -0.163171 0
2.32385 -0.0932446 0
2.40079 -0.0827183 0
2.25379 -0.178345 0
2.3331 -0.170758 0
2.24692 -0.103771 0
2.32385 -0.0932446 0
2.26066 -0.25292 0
2.34234 -0.248272 0
2.25379 -0.178345 0
2.3331 -0.170758 0
2.34234 -0.248272 0
2.42402 -0.243624 0
2.3331 -0.170758 0
2.41241 -0.163171 0
-0.992404 -0.102733 0
-1.04456 -0.141656 0
-0.963388 -0.16048 0
-1.01732 -0.210837 0
-0.940245 -0.06381 0
-0.992404 -0.102733 0
-0.909457 -0.110123 0
-0.963388 -0.16048 0
-0.971033 -0.0174965 0
-1.02142 -0.044986 0
-0.940245 -0.06381 0
-0.992404 -0.102733 0
-1.02142 -0.044986 0
-1.07181 -0.0724755 0
-0.992404 -0.102733 0
-1.04456 -0.141656 0
2.04434 0.705169 0
2.05098 0.783187 0
1.96753 0.71287 0
1.97494 0.78823 0
2.03769 0.627151 0
2.04434 0.705169 0
1.96012 0.637509 0
1.96753 0.71287 0
2.11527 0.616792 0
2.12115 0.697468 0
2.03769 0.627151 0
2.04434 0.705169 0
2.12115 0.697468 0
2.12703 0.778144 0
2.04434 0.705169 0
2.05098 0.783187 0
0.446922 -0.5266 0
0.487746 -0.527955 0
0.450842 -0.488991 0
0.486711 -0.491506 0
0.406098 -0.525245 0
0.446922 -0.5266 0
0.414972 -0.486476 0
0.450842 -0.488991 0
0.397223 -0.564013 0
0.443002 -0.564209 0
0.406098 -0.525245 0
0.446922 -0.5266 0
0.443002 -0.564209 0
0.48878 -0.564404 0
0.446922 -0.5266 0
0.487746 -0.527955 0
1.53743 0.377146 0
1.51481 0.319459 0
1.59625 0.352866 0
1.57053 0.292776 0
1.56006 0.434832 0
1.53743 0.377146 0
1.62198 0.412956 0
1.59625 0.352866 0
1.49814 0.456709 0
1.47861 0.401426 0
1.56006 0.434832 0
1.53743 0.377146 0
1.47861 0.401426 0
1.45908 0.346142 0
1.53743 0.377146 0
1.51481 0.319459 0
-0.0206197 -0.565165 0
-0.0316211 -0.601528 0
0.0151203 -0.57592 0
0.00495901 -0.61231 0
-0.0563598 -0.55441 0
-0.0682012 -0.590745 0
-0.0206197 -0.565165 0
-0.0316211 -0.601528 0
-0.0682012 -0.590745 0
-0.0800426 -0.627081 0
-0.0316211 -0.601528 0
-0.0426224 -0.637891 0
-0.0316211 -0.601528 0
-0.0426224 -0.637891 0
0.00495901 -0.61231 0
-0.0052023 -0.648701 0
-1.50045 1.0087 0
-1.57171 1.04667 0
-1.52069 0.928411 0
-1.60321 0.944357 0
-1.42919 0.970729 0
-1.50045 1.0087 0
-1.43816 0.912465 0
-1.52069 0.928411 0
-1.42023 1.02899 0
-1.48022 1.08899 0
-1.42919 0.970729 0
-1.50045 1.0087 0
-1.48022 1.08899 0
-1.5402 1.14899 0
-1.50045 1.0087 0
-1.57171 1.04667 0
1.72336 -1.55842 0
1.63556 -1.56311 0
1.73013 -1.64358 0
1.64004 -1.64687 0
1.81116 -1.55373 0
1.72336 -1.55842 0
1.82022 -1.64029 0
1.73013 -1.64358 0
1.8021 -1.46717 0
1.71659 -1.47326 0
1.81116 -1.55373 0
1.72336 -1.55842 0
1.71659 -1.47326 0
1.63108 -1.47934 0
1.72336 -1.55842 0
1.63556 -1.56311 0
-0.554721 -0.477252 0
-0.505057 -0.496447 0
-0.541055 -0.426637 0
-0.496542 -0.442858 0
-0.604385 -0.458057 0
-0.554721 -0.477252 0
-0.585568 -0.410415 0
-0.541055 -0.426637 0
-0.623203 -0.505698 0
-0.568388 -0.527867 0
-0.604385 -0.458057 0
-0.554721 -0.477252 0
-0.568388 -0.527867 0
-0.513573 -0.550037 0
-0.554721 -0.477252 0
-0.505057 -0.496447 0
-1.12329 -0.882351 0
-1.19569 -0.867177 0
-1.13302 -0.962199 0
-1.20966 -0.952438 0
-1.13302 -0.962199 0
-1.20966 -0.952438 0
-1.14275 -1.04205 0
-1.22362 -1.0377 0
-1.05639 -0.97196 0
-1.13302 -0.962199 0
-1.06188 -1.04639 0
-1.14275 -1.04205 0
-1.05089 -0.897524 0
-1.12329 -0.882351 0
-1.05639 -0.97196 0
-1.13302 -0.962199 0
1.1898 0.554985 0
1.17705 0.607396 0
1.14195 0.543876 0
1.11903 0.598778 0
1.23765 0.566094 0
1.23506 0.616015 0
1.1898 0.554985 0
1.17705 0.607396 0
1.23506 0.616015 0
1.23248 0.665935 0
1.17705 0.607396 0
1.1643 0.659807 0
1.17705 0.607396 0
1.1643 0.659807 0
1.11903 0.598778 0
1.09612 0.653679 0
0.89505 -0.468093 0
0.890547 -0.500994 0
0.929436 -0.471836 0
0.925311 -0.505925 0
0.899553 -0.435192 0
0.89505 -0.468093 0
0.933562 -0.437747 0
0.929436 -0.471836 0
0.865544 -0.432637 0
0.860663 -0.46435 0
0.899553 -0.435192 0
0.89505 -0.468093 0
0.860663 -0.46435 0
0.855783 -0.496062 0
0.89505 -0.468093 0
0.890547 -0.500994 0
-0.686815 1.37927 0
-0.674962 1.29222 0
-0.596481 1.38828 0
-0.585483 1.3028 0
-0.698667 1.46632 0
-0.686815 1.37927 0
-0.60748 1.47377 0
-0.596481 1.38828 0
-0.789855 1.45887 0
-0.777148 1.37025 0
-0.698667 1.46632 0
-0.686815 1.37927 0
-0.777148 1.37025 0
-0.764441 1.28164 0
-0.686815 1.37927 0
-0.674962 1.29222 0
-0.44391 -0.739075 0
-0.477995 -0.783178 0
-0.391957 -0.768058 0
-0.427708 -0.802268 0
-0.495862 -0.710091 0
-0.528282 -0.764088 0
-0.44391 -0.739075 0
-0.477995 -0.783178 0
-0.528282 -0.764088 0
-0.560703 -0.818085 0
-0.477995 -0.783178 0
-0.512081 -0.827281 0
-0.477995 -0.783178 0
-0.512081 -0.827281 0
-0.427708 -0.802268 0
-0.46346 -0.836477 0
-0.978257 0.455113 0
-0.905861 0.44644 0
-0.977086 0.528632 0
-0.895268 0.50967 0
-1.05065 0.463786 0
-0.978257 0.455113 0
-1.0589 0.547595 0
-0.977086 0.528632 0
-1.0424 0.379978 0
-0.979428 0.381594 0
-1.05065 0.463786 0
-0.978257 0.455113 0
-0.979428 0.381594 0
-0.916454 0.383209 0
-0.978257 0.455113 0
-0.905861 0.44644 0
1.12325 -0.448554 0
1.14534 -0.487198 0
1.16697 -0.432782 0
1.20126 -0.471755 0
1.10117 -0.40991 0
1.12325 -0.448554 0
1.13267 -0.39381 0
1.16697 -0.432782 0
1.06968 -0.42601 0
1.07954 -0.464326 0
1.10117 -0.40991 0
1.12325 -0.448554 0
1.07954 -0.464326 0
1.08941 -0.502642 0
1.12325 -0.448554 0
1.14534 -0.487198 0
-0.226334 0.600098 0
-0.170992 0.612262 0
-0.228283 0.643062 0
-0.183447 0.654675 0
-0.228283 0.643062 0
-0.183447 0.654675 0
-0.230231 0.686026 0
-0.195902 0.697089 0
-0.273118 0.631449 0
-0.228283 0.643062 0
-0.26456 0.674964 0
-0.230231 0.686026 0
-0.281675 0.587934 0
-0.226334 0.600098 0
-0.273118 0.631449 0
-0.228283 0.643062 0
-0.534799 0.751046 0
-0.48188 0.721092 0
-0.496778 0.813164 0
-0.439462 0.767695 0
-0.496778 0.813164 0
-0.439462 0.767695 0
-0.458757 0.875283 0
-0.397044 0.814299 0
-0.554094 0.858633 0
-0.496778 0.813164 0
-0.52047 0.936267 0
-0.458757 0.875283 0
-0.587719 0.781 0
-0.534799 0.751046 0
-0.554094 0.858633 0
-0.496778 0.813164 0
0.111486 1.26415 0
0.0849946 1.32795 0
0.0440761 1.24426 0
0.0282489 1.2917 0
0.178895 1.28405 0
0.14174 1.36421 0
0.111486 1.26415 0
0.0849946 1.32795 0
0.14174 1.36421 0
0.104585 1.44437 0
0.0849946 1.32795 0
0.0585036 1.39175 0
0.0849946 1.32795 0
0.0585036 1.39175 0
0.0282489 1.2917 0
0.0124217 1.33913 0
1.64788 -1.02412 0
1.57957 -1.0366 0
1.66131 -1.09345 0
1.59038 -1.10531 0
1.66131 -1.09345 0
1.59038 -1.10531 0
1.67474 -1.16278 0
1.60119 -1.17401 0
1.73223 -1.08159 0
1.66131 -1.09345 0
1.74828 -1.15155 0
1.67474 -1.16278 0
1.71618 -1.01164 0
1.64788 -1.02412 0
1.73223 -1.08159 0
1.66131 -1.09345 0
0.68815 -0.885417 0
0.682819 -0.820074 0
0.620596 -0.883913 0
0.614279 -0.810546 0
0.69348 -0.95076 0
0.68815 -0.885417 0
0.626912 -0.95728 0
0.620596 -0.883913 0
0.760049 -0.944241 0
0.755704 -0.886922 0
0.69348 -0.95076 0
0.68815 -0.885417 0
0.755704 -0.886922 0
0.751359 -0.829603 0
0.68815 -0.885417 0
0.682819 -0.820074 0
2.13339 -1.03062 0
2.05758 -1.03659 0
2.18103 -1.10972 0
2.0899 -1.13215 0
2.18103 -1.10972 0
2.0899 -1.13215 0
2.22868 -1.18881 0
2.12223 -1.22771 0
2.27216 -1.08728 0
2.18103 -1.10972 0
2.33512 -1.14991 0
2.22868 -1.18881 0
2.2092 -1.02465 0
2.13339 -1.03062 0
2.27216 -1.08728 0
2.18103 -1.10972 0
2.23314 -0.0315941 0
2.30915 -0.0189151 0
2.21937 0.0405827 0
2.29445 0.0554144 0
2.24692 -0.103771 0
2.32385 -0.0932446 0
2.23314 -0.0315941 0
2.30915 -0.0189151 0
2.32385 -0.0932446 0
2.40079 -0.0827183 0
2.30915 -0.0189151 0
2.38516 -0.00623607 0
2.30915 -0.0189151 0
2.38516 -0.00623607 0
2.29445 0.0554144 0
2.36952 0.0702461 0
-0.898633 0.101586 0
-0.951497 0.0658189 0
-0.852578 0.0475679 0
-0.911806 0.0150357 0
-0.944688 0.155604 0
-0.991188 0.116602 0
-0.898633 0.101586 0
-0.951497 0.0658189 0
-0.991188 0.116602 0
-1.03769 0.0775998 0
-0.951497 0.0658189 0
-1.00436 0.0300516 0
-0.951497 0.0658189 0
-1.00436 0.0300516 0
-0.911806 0.0150357 0
-0.971033 -0.0174965 0
1.69118 0.391518 0
1.62198 0.412956 0
1.66523 0.319156 0
1.59625 0.352866 0
1.66523 0.319156 0
1.59625 0.352866 0
1.63928 0.246794 0
1.57053 0.292776 0
1.73421 0.285446 0
1.66523 0.319156 0
1.70803 0.200812 0
1.63928 0.246794 0
1.76038 0.37008 0
1.69118 0.391518 0
1.73421 0.285446 0
1.66523 0.319156 0
1.43323 0.478726 0
1.49814 0.456709 0
1.45763 0.53358 0
1.51581 0.513383 0
1.45763 0.53358 0
1.51581 0.513383 0
1.48202 0.588434 0
1.53349 0.570057 0
1.39944 0.553777 0
1.45763 0.53358 0
1.43056 0.606811 0
1.48202 0.588434 0
1.36833 0.500743 0
1.43323 0.478726 0
1.39944 0.553777 0
1.45763 0.53358 0
-0.387057 0.912084 0
-0.34175 0.849844 0
-0.315356 0.948884 0
-0.286456 0.88539 0
-0.432363 0.974323 0
-0.387057 0.912084 0
-0.344256 1.01238 0
-0.315356 0.948884 0
-0.52047 0.936267 0
-0.458757 0.875283 0
-0.432363 0.974323 0
-0.387057 0.912084 0
-0.458757 0.875283 0
-0.397044 0.814299 0
-0.387057 0.912084 0
-0.34175 0.849844 0
-0.334802 0.619429 0
-0.371578 0.576057 0
-0.281675 0.587934 0
-0.323599 0.544928 0
-0.387928 0.650925 0
-0.419557 0.607185 0
-0.334802 0.619429 0
-0.371578 0.576057 0
-0.419557 0.607185 0
-0.451186 0.563446 0
-0.371578 0.576057 0
-0.408355 0.532684 0
-0.371578 0.576057 0
-0.408355 0.532684 0
-0.323599 0.544928 0
-0.365523 0.501922 0
-0.722021 -0.940145 0
-0.707035 -1.00195 0
-0.661278 -0.92502 0
-0.642918 -0.983111 0
-0.737007 -0.878338 0
-0.722021 -0.940145 0
-0.679638 -0.866928 0
-0.661278 -0.92502 0
-0.794377 -0.889749 0
-0.782765 -0.95527 0
-0.737007 -0.878338 0
-0.722021 -0.940145 0
-0.782765 -0.95527 0
-0.771152 -1.02079 0
-0.722021 -0.940145 0
-0.707035 -1.00195 0
-1.05089 -0.897524 0
-1.05639 -0.97196 0
-0.985801 -0.899963 0
-0.986549 -0.971905 0
-1.05639 -0.97196 0
-1.06188 -1.04639 0
-0.986549 -0.971905 0
-0.987297 -1.04385 0
-0.986549 -0.971905 0
-0.987297 -1.04385 0
-0.916711 -0.971851 0
-0.912713 -1.0413 0
-0.985801 -0.899963 0
-0.986549 -0.971905 0
-0.920709 -0.902402 0
-0.916711 -0.971851 0
-0.383171 0.167421 0
-0.36061 0.13227 0
-0.34413 0.177895 0
-0.32307 0.150956 0
-0.405731 0.202573 0
[...]
POINT_DATA 22496
SCALARS solution_0 double 1
LOOKUP_TABLE default
0.996862 0.985296 0.80814 0.775571 1.0065 0.996862 0.841938 0.80814 1.0278 1.02879 1.0065 0.996862 1.02879 1.03003 0.996862 0.985296 0.989226 0.990121 0.988297 0.989337 0.988269 0.989226 0.987157 0.988297 0.989416 0.990252 0.988269 0.989226 0.990252 0.991029 0.989226 0.990121 1.0475 1.05058 1.04843 1.05138 1.0444 1.0475 1.04546 1.04843 1.04349 1.04668 1.0444 1.0475 1.04668 1.04987 1.0475 1.05058 1.04907 1.05007 1.05446 1.05509 1.04751 1.04907 1.05336 1.05446 1.04216 1.04408 1.04751 1.04907 1.04408 1.04539 1.04907 1.05007 1.0406 1.03818 1.0375 1.03657 1.04305 1.0406 1.0404 1.0375 1.04572 1.04381 1.04305 1.0406 1.04381 1.04149 1.0406 1.03818 1.00367 1.00258 1.00719 1.00569 1.00012 0.999452 1.00367 1.00258 0.999452 0.998704 1.00258 1.00148 1.00258 1.00148 1.00569 1.00422 1.00252 1.00138 1.00145 1.00013 1.00291 1.00252 1.00204 1.00145 1.00409 1.00386 1.00291 1.00252 1.00386 1.00313 1.00252 1.00138 0.950477 0.950843 0.939716 0.940152 0.950104 0.950477 0.939266 0.939716 0.959009 0.959326 0.950104 0.950477 0.959326 0.959641 0.950477 0.950843 0.981262 0.98128 0.979493 0.979286 0.981581 0.981262 0.979976 0.979493 0.982903 0.982701 0.981581 0.981262 0.982701 0.982861 0.981262 0.98128 0.989447 0.990385 0.988746 0.989752 0.988746 0.989752 0.987774 0.988914 0.987584 0.988746 0.986527 0.987774 0.98838 0.989447 0.987584 0.988746 1.06022 1.06162 1.06207 1.06369 1.05854 1.05971 1.06022 1.06162 1.05971 1.0608 1.06162 1.06284 1.06162 1.06284 1.06369 1.065 1.04788 1.04519 1.04572 1.04311 1.05055 1.04788 1.04831 1.04572 1.05276 1.05001 1.05055 1.04788 1.05001 1.04726 1.04788 1.04519 1.03887 1.03447 1.04268 1.03818 1.04411 1.03887 1.04801 1.04268 1.04019 1.03509 1.04411 1.03887 1.03509 1.03083 1.03887 1.03447 0.986278 0.986117 0.987137 0.986656 0.985639 0.985767 0.986278 0.986117 0.985767 0.985663 0.986117 0.985841 0.986117 0.985841 0.986656 0.986175 0.998505 0.998134 1.00035 1.00001 0.998729 0.998505 1.0005 1.00035 0.996947 0.996684 0.998729 0.998505 0.996684 0.996347 0.998505 0.998134 1.03634 1.0331 1.03462 1.03102 1.03972 1.03634 1.03853 1.03462 1.04077 1.03791 1.03972 1.03634 1.03791 1.03508 1.03634 1.0331 1.01988 1.02472 1.02248 1.02617 1.02248 1.02617 1.02475 1.02751 1.01902 1.02248 1.02211 1.02475 1.01557 1.01988 1.01902 1.02248 1.01506 1.0152 1.01918 1.01902 1.01918 1.01902 1.02331 1.02291 1.01932 1.01918 1.02375 1.02331 1.01492 1.01506 1.01932 1.01918 1.06193 1.06386 1.05874 1.0602 1.06498 1.06751 1.06193 1.06386 1.06751 1.07079 1.06386 1.0663 1.06386 1.0663 1.0602 1.06195 0.992186 0.992521 0.988026 0.988318 0.988026 0.988318 0.983615 0.983867 0.987745 0.988026 0.983371 0.983615 0.991866 0.992186 0.987745 0.988026 1.01551 1.021 1.01549 1.0217 1.01025 1.01551 1.00958 1.01549 1.01062 1.01518 1.01025 1.01551 1.01518 1.01988 1.01551 1.021 0.985906 0.986359 0.981075 0.980657 0.981075 0.980657 0.975904 0.974421 0.981533 0.981075 0.977416 0.975904 0.985502 0.985906 0.981533 0.981075 0.597033 0.581297 0.576577 0.619801 0.841938 0.80814 0.597033 0.581297 0.80814 0.775571 0.581297 0.57476 0.581297 0.57476 0.619801 0.668238 0.989351 0.98998 0.987182 0.988348 0.991319 0.991522 0.989351 0.98998 0.991522 0.991814 0.98998 0.990628 0.98998 0.990628 0.988348 0.989416 1.03755 1.0404 1.03493 1.0375 1.03493 1.0375 1.0363 1.03657 1.03388 1.03493 1.03757 1.0363 1.03509 1.03755 1.03388 1.03493 1.04864 1.04572 1.04998 1.04757 1.04998 1.04757 1.05132 1.04935 1.05248 1.04998 1.05335 1.05132 1.05172 1.04864 1.05248 1.04998 1.02766 1.02687 1.03226 1.03095 1.02857 1.02766 1.03367 1.03226 1.02375 1.02331 1.02857 1.02766 1.02331 1.02291 1.02766 1.02687 1.01497 1.0104 1.01557 1.01011 1.01467 1.01076 1.01497 1.0104 1.01076 1.00689 1.0104 1.00592 1.0104 1.00592 1.01011 1.00483 0.984843 0.983839 0.984821 0.983975 0.985577 0.984843 0.985425 0.984821 0.985834 0.984983 0.985577 0.984843 0.984983 0.983851 0.984843 0.983839 0.98838 0.987584 0.987545 0.986687 0.987584 0.986527 0.986687 0.985549 0.986687 0.985549 0.985911 0.984722 0.987545 0.986687 0.986816 0.985911 0.966679 0.959934 0.96449 0.958054 0.972443 0.966679 0.969994 0.96449 0.974798 0.968844 0.972443 0.966679 0.968844 0.962204 0.966679 0.959934 1.08369 1.08383 1.07813 1.07842 1.08383 1.08396 1.07842 1.07872 1.07842 1.07872 1.0737 1.07414 1.07813 1.07842 1.07327 1.0737 1.04675 1.04435 1.04689 1.04412 1.04967 1.04675 1.05004 1.04689 1.0506 1.04598 1.04967 1.04675 1.04598 1.03896 1.04675 1.04435 1.02629 1.03017 1.02351 1.02724 1.02258 1.02629 1.01995 1.02351 1.02496 1.02881 1.02258 1.02629 1.02881 1.03283 1.02629 1.03017 0.981437 0.979893 0.98679 0.985408 0.983034 0.981437 0.988209 0.98679 0.977416 0.975614 0.983034 0.981437 0.975614 0.973872 0.981437 0.979893 1.04659 1.04903 1.04841 1.05076 1.04415 1.04659 1.04607 1.04841 1.04227 1.04479 1.04415 1.04659 1.04479 1.04726 1.04659 1.04903 0.946528 0.947085 0.934214 0.93496 0.934214 0.93496 0.915509 0.916451 0.933679 0.934214 0.914789 0.915509 0.946162 0.946528 0.933679 0.934214 0.983717 0.982815 0.982612 0.981548 0.984702 0.983717 0.983759 0.982612 0.98555 0.984688 0.984702 0.983717 0.984688 0.983902 0.983717 0.982815 0.989818 0.991392 0.988388 0.989487 0.991437 0.993641 0.989818 0.991392 0.993641 0.995419 0.991392 0.992534 0.991392 0.992534 0.989487 0.990198 1.04212 1.03972 1.04057 1.03853 1.04464 1.04212 1.04269 1.04057 1.04661 1.04364 1.04464 1.04212 1.04364 1.04077 1.04212 1.03972 1.0423 1.038 1.03611 1.03206 1.04656 1.0423 1.04019 1.03611 1.05465 1.05021 1.04656 1.0423 1.05021 1.04568 1.0423 1.038 0.979483 0.968508 0.972937 0.961975 0.972937 0.961975 0.964805 0.954063 0.98545 0.972937 0.977261 0.964805 0.991763 0.979483 0.98545 0.972937 1.04655 1.04546 1.04942 1.04843 1.04942 1.04843 1.05227 1.05138 1.05052 1.04942 1.05325 1.05227 1.04777 1.04655 1.05052 1.04942 0.970075 0.965592 0.967983 0.960397 0.972078 0.970425 0.970075 0.965592 0.970425 0.968656 0.965592 0.960718 0.965592 0.960718 0.960397 0.951891 0.987089 0.986571 0.983585 0.983042 0.986571 0.98597 0.983042 0.982511 0.983042 0.982511 0.979657 0.979096 0.983585 0.983042 0.980274 0.979657 0.908428 0.901217 0.917831 0.912874 0.916278 0.908428 0.924003 0.917831 0.90852 0.899087 0.916278 0.908428 0.899087 0.889534 0.908428 0.901217 0.99637 0.997928 0.999286 1.00105 0.999286 1.00105 1.00214 1.00415 0.997449 0.999286 1.00004 1.00214 0.994757 0.99637 0.997449 0.999286 1.08369 1.09058 1.08383 1.09053 1.09058 1.09904 1.09053 1.09875 1.09053 1.09875 1.09046 1.09844 1.08383 1.09053 1.08396 1.09046 1.03755 1.04112 1.0404 1.04318 1.03509 1.03913 1.03755 1.04112 1.03913 1.04222 1.04112 1.04379 1.04112 1.04379 1.04318 1.04556 0.98006 0.980323 0.977252 0.977371 0.980323 0.98078 0.977371 0.977695 0.977371 0.977695 0.973743 0.973871 0.977252 0.977371 0.973793 0.973743 0.976143 0.985715 1.01952 1.02273 0.985715 0.992619 1.02273 1.0282 1.02273 1.0282 1.03153 1.0343 1.01952 1.02273 1.03192 1.03153 0.985834 0.986278 0.984983 0.985388 0.986278 0.986816 0.985388 0.985911 0.985388 0.985911 0.984215 0.984722 0.984983 0.985388 0.983851 0.984215 0.985845 0.98503 0.986997 0.986309 0.986592 0.985845 0.987649 0.986997 0.98555 0.984702 0.986592 0.985845 0.984702 0.983759 0.985845 0.98503 1.01014 1.01456 1.00821 1.01232 1.00582 1.01014 1.00417 1.00821 1.00725 1.01184 1.00582 1.01014 1.01184 1.01655 1.01014 1.01456 1.07049 1.07199 1.06846 1.07052 1.06917 1.07049 1.06664 1.06846 1.07144 1.07237 1.06917 1.07049 1.07237 1.07341 1.07049 1.07199 1.06465 1.06664 1.06438 1.06652 1.06438 1.06652 1.06401 1.06629 1.06212 1.06438 1.06177 1.06401 1.06242 1.06465 1.06212 1.06438 1.00884 0.9668 1.03728 1.02246 0.9668 0.90231 1.02246 0.991828 1.02246 0.991828 1.03691 1.02825 1.03728 1.02246 1.04004 1.03691 0.933463 0.921021 0.945076 0.933946 0.94349 0.933463 0.954063 0.945076 0.935174 0.924529 0.94349 0.933463 0.924529 0.911342 0.933463 0.921021 1.07086 1.07065 1.07238 1.07252 1.07238 1.07252 1.07414 1.07465 1.07221 1.07238 1.07359 1.07414 1.07103 1.07086 1.07221 1.07238 1.11609 1.12467 1.11311 1.1244 1.10669 1.11609 1.10521 1.11311 1.10895 1.11976 1.10669 1.11609 1.11976 1.1188 1.11609 1.12467 0.951635 0.957568 0.953016 0.957612 0.951138 0.95792 0.951635 0.957568 0.95792 0.963615 0.957568 0.96251 0.957568 0.96251 0.957612 0.961633 0.851887 0.827579 1.03757 1.02611 0.469738 0.470369 0.851887 0.827579 0.470369 0.477355 0.827579 0.800866 0.827579 0.800866 1.02611 1.01449 0.851887 1.03757 0.743036 0.974862 0.743036 0.974862 0.596056 0.853161 0.413991 0.743036 0.366018 0.596056 0.469738 0.851887 0.413991 0.743036 1.07847 1.08053 1.07983 1.08206 1.07722 1.07912 1.07847 1.08053 1.07912 1.08088 1.08053 1.08248 1.08053 1.08248 1.08206 1.0842 1.06985 1.06859 1.06923 1.0677 1.06859 1.06724 1.0677 1.06598 1.0677 1.06598 1.06704 1.065 1.06923 1.0677 1.06879 1.06704 1.00169 0.99968 1.00093 0.999258 1.00387 1.00169 1.00266 1.00093 1.00488 1.0023 1.00387 1.00169 1.0023 1.00001 1.00169 0.99968 1.04635 1.04182 1.05003 1.04551 1.0517 1.04635 1.05538 1.05003 1.04801 1.04268 1.0517 1.04635 1.04268 1.03818 1.04635 1.04182 0.694034 0.993586 0.744106 1.00659 0.744106 1.00659 0.800866 1.01449 0.4642 0.744106 0.477355 0.800866 0.48591 0.694034 0.4642 0.744106 1.02876 1.03196 1.02755 1.03102 1.02589 1.02876 1.02444 1.02755 1.02707 1.02961 1.02589 1.02876 1.02961 1.03243 1.02876 1.03196 0.9993 0.998182 1.00204 1.001 0.996375 0.995179 0.9993 0.998182 0.995179 0.994044 0.998182 0.997147 0.998182 0.997147 1.001 1.00007 1.02515 1.02946 1.01792 1.02269 1.02167 1.02515 1.01418 1.01792 1.02845 1.03171 1.02167 1.02515 1.03171 1.03556 1.02515 1.02946 0.995421 0.994832 0.99459 0.993978 0.995888 0.995352 0.995421 0.994832 0.995352 0.994908 0.994832 0.994384 0.994832 0.994384 0.993978 0.993583 1.02724 1.02375 1.0315 1.02857 1.0315 1.02857 1.03597 1.03367 1.03457 1.0315 1.03846 1.03597 1.03083 1.02724 1.03457 1.0315 0.973636 0.969876 0.975774 0.973179 0.976991 0.973636 0.978128 0.975774 0.975882 0.971543 0.976991 0.973636 0.971543 0.966641 0.973636 0.969876 1.09939 1.10342 1.09395 1.09597 1.09395 1.09597 1.08994 1.09068 1.09168 1.09395 1.08884 1.08994 1.09545 1.09939 1.09168 1.09395 1.01073 1.01003 1.01402 1.01263 1.01003 1.00912 1.01263 1.01119 1.01263 1.01119 1.01552 1.01346 1.01402 1.01263 1.01764 1.01552 0.978077 0.97896 0.979976 0.980667 0.975867 0.977008 0.978077 0.97896 0.977008 0.978355 0.97896 0.980042 0.97896 0.980042 0.980667 0.981548 0.761406 0.750137 0.522609 0.483137 0.750137 0.738804 0.483137 0.449463 0.483137 0.449463 0.337227 0.366018 0.522609 0.483137 0.342007 0.337227 0.807019 0.782525 0.963402 0.94902 0.782525 0.756175 0.94902 0.932794 0.94902 0.932794 1.03835 1.03219 0.963402 0.94902 1.0432 1.03835 0.977642 0.977275 0.979587 0.9793 0.975285 0.974842 0.977642 0.977275 0.974842 0.974808 0.977275 0.977242 0.977275 0.977242 0.9793 0.979286 0.968844 0.96898 0.962204 0.963348 0.974798 0.974053 0.968844 0.96898 0.974053 0.974285 0.96898 0.969915 0.96898 0.969915 0.963348 0.965 1.02441 1.01688 1.02381 1.01436 1.03169 1.02441 1.03259 1.02381 1.0311 1.02507 1.03169 1.02441 1.02507 1.01908 1.02441 1.01688 0.870318 0.844478 0.891073 0.870536 0.889973 0.870318 0.907171 0.891073 0.877964 0.856324 0.889973 0.870318 0.856324 0.827662 0.870318 0.844478 0.983302 0.986931 0.98702 0.989815 0.980372 0.983302 0.984809 0.98702 0.974798 0.978676 0.980372 0.983302 0.978676 0.983453 0.983302 0.986931 0.975799 0.978363 0.977472 0.980274 0.9728 0.975799 0.974308 0.977472 0.971561 0.97458 0.9728 0.975799 0.97458 0.977081 0.975799 0.978363 1.04572 1.04305 1.04757 1.04529 1.04305 1.0404 1.04529 1.04318 1.04529 1.04318 1.04738 1.04556 1.04757 1.04529 1.04935 1.04738 0.982108 0.980667 0.982815 0.981548 0.983319 0.982108 0.983902 0.982815 0.982903 0.981581 0.983319 0.982108 0.981581 0.979976 0.982108 0.980667 1.01493 1.01467 1.01872 1.01844 1.01872 1.01844 1.02253 1.02221 1.01902 1.01872 1.02291 1.02253 1.0152 1.01493 1.01902 1.01872 0.972034 0.973529 0.96591 0.967983 0.970476 0.972034 0.963784 0.96591 0.976468 0.977586 0.970476 0.972034 0.977586 0.978667 0.972034 0.973529 0.957941 0.960397 0.948735 0.951891 0.955346 0.957941 0.945331 0.948735 0.963784 0.96591 0.955346 0.957941 0.96591 0.967983 0.957941 0.960397 1.0358 1.02538 1.04243 1.03152 1.04427 1.0358 1.05074 1.04243 1.03937 1.03109 1.04427 1.0358 1.03109 1.02131 1.0358 1.02538 0.988491 0.991299 0.989378 0.992644 0.989378 0.992644 0.990342 0.994044 0.985906 0.989378 0.986359 0.990342 0.985502 0.988491 0.985906 0.989378 0.92489 0.939716 0.925376 0.940152 0.904013 0.92489 0.904588 0.925376 0.903416 0.924387 0.904013 0.92489 0.924387 0.939266 0.92489 0.939716 1.02701 1.02923 1.02366 1.02584 1.02923 1.03142 1.02584 1.028 1.02584 1.028 1.0224 1.02455 1.02366 1.02584 1.02024 1.0224 1.0196 1.01814 1.01787 1.01629 1.02074 1.0196 1.01912 1.01787 1.02269 1.02156 1.02074 1.0196 1.02156 1.02021 1.0196 1.01814 1.03367 1.03592 1.03729 1.03869 1.03021 1.03323 1.03367 1.03592 1.03323 1.03616 1.03592 1.03805 1.03592 1.03805 1.03869 1.03995 0.990581 0.993067 0.989247 0.991437 0.987903 0.990581 0.986819 0.989247 0.989037 0.991969 0.987903 0.990581 0.991969 0.994757 0.990581 0.993067 1.02017 1.02052 1.01911 1.01912 1.02013 1.02017 1.01864 1.01911 1.02221 1.02115 1.02013 1.02017 1.02115 1.02175 1.02017 1.02052 1.04927 1.05257 1.05214 1.05527 1.05214 1.05527 1.0554 1.05835 1.04898 1.05214 1.05243 1.0554 1.04593 1.04927 1.04898 1.05214 0.992849 0.991756 0.992252 0.991296 0.991756 0.990491 0.991296 0.990242 0.991296 0.990242 0.990751 0.989914 0.992252 0.991296 0.991541 0.990751 1.07796 1.07562 1.07933 1.07652 1.07562 1.07359 1.07652 1.07414 1.07652 1.07414 1.07732 1.07465 1.07933 1.07652 1.08056 1.07732 1.06939 1.0689 1.07204 1.07178 1.07204 1.07178 1.07497 1.07494 1.0723 1.07204 1.07499 1.07497 1.0699 1.06939 1.0723 1.07204 1.03695 1.03246 1.0342 1.03025 1.03246 1.02808 1.03025 1.02636 1.03025 1.02636 1.028 1.02455 1.0342 1.03025 1.03142 1.028 0.963026 0.962538 0.955843 0.955311 0.955843 0.955311 0.946869 0.946162 0.956522 0.955843 0.947728 0.946869 0.963648 0.963026 0.956522 0.955843 1.05727 1.05607 1.05814 1.05663 1.05814 1.05663 1.059 1.0572 1.05971 1.05814 1.0608 1.059 1.05854 1.05727 1.05971 1.05814 0.990751 0.989914 0.990725 0.989594 0.990725 0.989594 0.990758 0.989337 0.991746 0.990725 0.991999 0.990758 0.991541 0.990751 0.991746 0.990725 1.1043 1.09774 1.10376 1.09796 1.1048 1.09738 1.1043 1.09774 1.09738 1.09127 1.09774 1.09223 1.09774 1.09223 1.09796 1.09314 0.977989 1.03592 0.946758 0.967032 0.946758 0.967032 0.895552 0.874344 0.912982 0.946758 0.885128 0.895552 0.934992 0.977989 0.912982 0.946758 0.982184 0.983851 0.982498 0.984215 0.982498 0.984215 0.982985 0.984722 0.980323 0.982498 0.98078 0.982985 0.98006 0.982184 0.980323 0.982498 0.995882 0.996756 0.995601 0.996551 0.996756 0.996808 0.996551 0.996662 0.996551 0.996662 0.99638 0.996526 0.995601 0.996551 0.995357 0.99638 0.99459 0.993978 0.993294 0.993023 0.993978 0.993583 0.993023 0.992909 0.993023 0.992909 0.991979 0.992186 0.993294 0.993023 0.991814 0.991979 0.439158 0.469738 0.441762 0.413991 0.441762 0.413991 0.449463 0.366018 0.745775 0.441762 0.738804 0.449463 0.751227 0.439158 0.745775 0.441762 1.03896 1.02741 1.04435 1.04152 1.02741 1.00884 1.04152 1.03728 1.04152 1.03728 1.04167 1.04004 1.04435 1.04152 1.04412 1.04167 1.09936 1.09761 1.0913 1.08965 1.0913 1.08965 1.08497 1.08338 1.09272 1.0913 1.08631 1.08497 1.10088 1.09936 1.09272 1.0913 1.07802 1.0821 1.07772 1.08152 1.07796 1.08238 1.07802 1.0821 1.08238 1.08818 1.0821 1.08737 1.0821 1.08737 1.08152 1.08631 0.983615 0.983867 0.978559 0.978804 0.978559 0.978804 0.973095 0.973336 0.978321 0.978559 0.972857 0.973095 0.983371 0.983615 0.978321 0.978559 1.00118 1.00582 0.999791 1.00417 0.996579 1.00118 0.995437 0.999791 0.99754 1.00237 0.996579 1.00118 1.00237 1.00725 1.00118 1.00582 0.969876 0.963053 0.973179 0.966012 0.966641 0.9601 0.969876 0.963053 0.9601 0.952439 0.963053 0.955174 0.963053 0.955174 0.966012 0.957796 0.980259 0.980773 0.982265 0.982561 0.982265 0.982561 0.983839 0.983975 0.982184 0.982265 0.983851 0.983839 0.98006 0.980259 0.982184 0.982265 1.07705 1.06876 1.07986 1.07156 1.06876 1.06206 1.07156 1.06484 1.07156 1.06484 1.07427 1.06756 1.07986 1.07156 1.08257 1.07427 1.00507 1.01025 1.00439 1.00958 0.999963 1.00507 0.999282 1.00439 1.00042 1.00549 0.999963 1.00507 1.00549 1.01062 1.00507 1.01025 0.988132 0.986664 0.984809 0.983254 0.990899 0.989532 0.988132 0.986664 0.989532 0.988549 0.986664 0.985673 0.986664 0.985673 0.983254 0.982311 1.01903 1.02021 1.02044 1.02223 1.02044 1.02223 1.0219 1.02444 1.01844 1.02044 1.01911 1.0219 1.01773 1.01903 1.01844 1.02044 1.04528 1.0451 1.04875 1.04861 1.04552 1.04528 1.04895 1.04875 1.0422 1.04193 1.04552 1.04528 1.04193 1.04174 1.04528 1.0451 0.983362 0.984175 0.984294 0.984719 0.982561 0.983362 0.983975 0.984294 0.980773 0.982157 0.982561 0.983362 0.982157 0.983455 0.983362 0.984175 0.984918 0.97991 0.999642 0.997031 0.989161 0.984918 1.00209 0.999642 0.977261 0.97108 0.989161 0.984918 0.97108 0.963685 0.984918 0.97991 0.997833 0.998284 0.997559 0.997837 0.997367 0.997961 0.997833 0.998284 0.997961 0.998764 0.998284 0.998831 0.998284 0.998831 0.997837 0.998163 1.05396 1.05651 1.05278 1.05557 1.05151 1.05396 1.05004 1.05278 1.05267 1.05492 1.05151 1.05396 1.05492 1.05732 1.05396 1.05651 1.04448 1.04256 1.04149 1.03992 1.04751 1.04576 1.04448 1.04256 1.04576 1.04412 1.04256 1.04167 1.04256 1.04167 1.03992 1.04004 0.985674 0.985488 0.98563 0.985663 0.98579 0.985674 0.985639 0.98563 0.985885 0.985713 0.98579 0.985674 0.985713 0.985425 0.985674 0.985488 1.07081 1.0711 1.0711 1.07157 1.07033 1.07081 1.07044 1.0711 1.07045 1.07077 1.07033 1.07081 1.07077 1.0709 1.07081 1.0711 0.989486 0.989579 0.988416 0.988482 0.990491 0.990482 0.989486 0.989579 0.990482 0.990368 0.989579 0.989581 0.989579 0.989581 0.988482 0.988486 1.0629 1.05462 1.0667 1.05838 1.05462 1.04801 1.05838 1.0517 1.05838 1.0517 1.06209 1.05538 1.0667 1.05838 1.07042 1.06209 1.01227 1.01617 1.01431 1.01822 1.01431 1.01822 1.01624 1.02024 1.01026 1.01431 1.0121 1.01624 1.00829 1.01227 1.01026 1.01431 1.07016 1.06972 1.07103 1.07086 1.0694 1.06869 1.07016 1.06972 1.06869 1.06791 1.06972 1.06921 1.06972 1.06921 1.07086 1.07065 0.984877 0.983841 0.986527 0.985549 0.982748 0.981655 0.984877 0.983841 0.981655 0.98078 0.983841 0.982985 0.983841 0.982985 0.985549 0.984722 1.05 1.04858 1.04751 1.04576 1.05267 1.05151 1.05 1.04858 1.05151 1.05004 1.04858 1.04689 1.04858 1.04689 1.04576 1.04412 0.98506 0.983741 0.979701 0.978724 0.979701 0.978724 0.973859 0.973285 0.980657 0.979701 0.974421 0.973859 0.986359 0.98506 0.980657 0.979701 1.07585 1.07909 1.07878 1.0821 1.07233 1.07543 1.07585 1.07909 1.07543 1.07911 1.07909 1.0829 1.07909 1.0829 1.0821 1.08597 1.11518 1.13051 1.11544 1.13125 1.11544 1.13125 1.11551 1.13201 1.10471 1.11544 1.10451 1.11551 1.1048 1.11518 1.10471 1.11544 1.05218 1.04895 1.05215 1.04875 1.05215 1.04875 1.05217 1.04861 1.05567 1.05215 1.05587 1.05217 1.05551 1.05218 1.05567 1.05215 0.991837 0.990909 0.990032 0.989005 0.994098 0.993487 0.991837 0.990909 0.993487 0.992182 0.990909 0.989293 0.990909 0.989293 0.989005 0.987332 1.0038 1.00265 1.00829 1.00692 0.999239 0.998286 1.0038 1.00265 0.998286 0.997266 1.00265 1.00144 1.00265 1.00144 1.00692 1.0055 1.09021 1.08358 1.09111 1.08448 1.08358 1.07749 1.08448 1.0784 1.08448 1.0784 1.08487 1.07878 1.09111 1.08448 1.09152 1.08487 1.02629 1.02577 1.03013 1.02937 1.02687 1.02629 1.03095 1.03013 1.02291 1.02253 1.02687 1.02629 1.02253 1.02221 1.02629 1.02577 0.57476 0.579188 0.668238 0.720148 0.775571 0.730264 0.57476 0.579188 0.730264 0.693609 0.579188 0.595723 0.579188 0.595723 0.720148 0.770229 0.773415 0 0.800559 0 0.800559 0 0.839978 0 1.06554 0.800559 1.03592 0.839978 1.08193 0.773415 1.06554 0.800559 1.04661 1.04731 1.04364 1.0449 1.04731 1.04784 1.0449 1.04602 1.0449 1.04602 1.04251 1.04419 1.04364 1.0449 1.04077 1.04251 1.0038 1.00829 1.00511 1.01026 1.00511 1.01026 1.00628 1.0121 0.999941 1.00511 1.00051 1.00628 0.999239 1.0038 0.999941 1.00511 0.646737 0.770494 0.474426 0.564825 0.770494 0.874344 0