# vtk DataFile Version 3.0
#This file was generated by the deal.II library on 2020/11/21 at 16:10:33
ASCII
DATASET UNSTRUCTURED_GRID

POINTS 43064 double
-0.992404 -0.102733 0
-1.04456 -0.141656 0
-0.963388 -0.16048 0
-1.01732 -0.210837 0
-0.940245 -0.06381 0
-0.992404 -0.102733 0
-0.909457 -0.110123 0
-0.963388 -0.16048 0
-0.971033 -0.0174965 0
-1.02142 -0.044986 0
-0.940245 -0.06381 0
-0.992404 -0.102733 0
-1.02142 -0.044986 0
-1.07181 -0.0724755 0
-0.992404 -0.102733 0
-1.04456 -0.141656 0
2.04434 0.705169 0
2.05098 0.783187 0
1.96753 0.71287 0
1.97494 0.78823 0
2.03769 0.627151 0
2.04434 0.705169 0
1.96012 0.637509 0
1.96753 0.71287 0
2.11527 0.616792 0
2.12115 0.697468 0
2.03769 0.627151 0
2.04434 0.705169 0
2.12115 0.697468 0
2.12703 0.778144 0
2.04434 0.705169 0
2.05098 0.783187 0
0.446922 -0.5266 0
0.487746 -0.527955 0
0.450842 -0.488991 0
0.486711 -0.491506 0
0.406098 -0.525245 0
0.446922 -0.5266 0
0.414972 -0.486476 0
0.450842 -0.488991 0
0.397223 -0.564013 0
0.443002 -0.564209 0
0.406098 -0.525245 0
0.446922 -0.5266 0
0.443002 -0.564209 0
0.48878 -0.564404 0
0.446922 -0.5266 0
0.487746 -0.527955 0
1.56006 0.434832 0
1.53743 0.377146 0
1.62198 0.412956 0
1.59625 0.352866 0
1.49814 0.456709 0
1.47861 0.401426 0
1.56006 0.434832 0
1.53743 0.377146 0
1.47861 0.401426 0
1.45908 0.346142 0
1.53743 0.377146 0
1.51481 0.319459 0
-0.0206197 -0.565165 0
-0.0316211 -0.601528 0
0.0151203 -0.57592 0
0.00495901 -0.61231 0
-0.0563598 -0.55441 0
-0.0682012 -0.590745 0
-0.0206197 -0.565165 0
-0.0316211 -0.601528 0
-0.0682012 -0.590745 0
-0.0800426 -0.627081 0
-0.0316211 -0.601528 0
-0.0426224 -0.637891 0
-0.0316211 -0.601528 0
-0.0426224 -0.637891 0
0.00495901 -0.61231 0
-0.0052023 -0.648701 0
-1.50045 1.0087 0
-1.57171 1.04667 0
-1.52069 0.928411 0
-1.60321 0.944357 0
-1.42919 0.970729 0
-1.50045 1.0087 0
-1.43816 0.912465 0
-1.52069 0.928411 0
-1.42023 1.02899 0
-1.48022 1.08899 0
-1.42919 0.970729 0
-1.50045 1.0087 0
-1.48022 1.08899 0
-1.5402 1.14899 0
-1.50045 1.0087 0
-1.57171 1.04667 0
1.72336 -1.55842 0
1.63556 -1.56311 0
1.73013 -1.64358 0
1.64004 -1.64687 0
1.81116 -1.55373 0
1.72336 -1.55842 0
1.82022 -1.64029 0
1.73013 -1.64358 0
1.8021 -1.46717 0
1.71659 -1.47326 0
1.81116 -1.55373 0
1.72336 -1.55842 0
1.71659 -1.47326 0
1.63108 -1.47934 0
1.72336 -1.55842 0
1.63556 -1.56311 0
-0.554721 -0.477252 0
-0.505057 -0.496447 0
-0.541055 -0.426637 0
-0.496542 -0.442858 0
-0.604385 -0.458057 0
-0.554721 -0.477252 0
-0.585568 -0.410415 0
-0.541055 -0.426637 0
-0.623203 -0.505698 0
-0.568388 -0.527867 0
-0.604385 -0.458057 0
-0.554721 -0.477252 0
-0.568388 -0.527867 0
-0.513573 -0.550037 0
-0.554721 -0.477252 0
-0.505057 -0.496447 0
-1.12329 -0.882351 0
-1.19569 -0.867177 0
-1.13302 -0.962199 0
-1.20966 -0.952438 0
-1.13302 -0.962199 0
-1.20966 -0.952438 0
-1.14275 -1.04205 0
-1.22362 -1.0377 0
-1.05639 -0.97196 0
-1.13302 -0.962199 0
-1.06188 -1.04639 0
-1.14275 -1.04205 0
-1.05089 -0.897524 0
-1.12329 -0.882351 0
-1.05639 -0.97196 0
-1.13302 -0.962199 0
1.1898 0.554985 0
1.17705 0.607396 0
1.14195 0.543876 0
1.11903 0.598778 0
1.23765 0.566094 0
1.23506 0.616015 0
1.1898 0.554985 0
1.17705 0.607396 0
1.23506 0.616015 0
1.23248 0.665935 0
1.17705 0.607396 0
1.1643 0.659807 0
1.17705 0.607396 0
1.1643 0.659807 0
1.11903 0.598778 0
1.09612 0.653679 0
0.89505 -0.468093 0
0.890547 -0.500994 0
0.929436 -0.471836 0
0.925311 -0.505925 0
0.899553 -0.435192 0
0.89505 -0.468093 0
0.933562 -0.437747 0
0.929436 -0.471836 0
0.865544 -0.432637 0
0.860663 -0.46435 0
0.899553 -0.435192 0
0.89505 -0.468093 0
0.860663 -0.46435 0
0.855783 -0.496062 0
0.89505 -0.468093 0
0.890547 -0.500994 0
-0.686815 1.37927 0
-0.674962 1.29222 0
-0.596481 1.38828 0
-0.585483 1.3028 0
-0.698667 1.46632 0
-0.686815 1.37927 0
-0.60748 1.47377 0
-0.596481 1.38828 0
-0.789855 1.45887 0
-0.777148 1.37025 0
-0.698667 1.46632 0
-0.686815 1.37927 0
-0.777148 1.37025 0
-0.764441 1.28164 0
-0.686815 1.37927 0
-0.674962 1.29222 0
-0.44391 -0.739075 0
-0.477995 -0.783178 0
-0.391957 -0.768058 0
-0.427708 -0.802268 0
-0.495862 -0.710091 0
-0.528282 -0.764088 0
-0.44391 -0.739075 0
-0.477995 -0.783178 0
-0.528282 -0.764088 0
-0.560703 -0.818085 0
-0.477995 -0.783178 0
-0.512081 -0.827281 0
-0.477995 -0.783178 0
-0.512081 -0.827281 0
-0.427708 -0.802268 0
-0.46346 -0.836477 0
-0.978257 0.455113 0
-0.905861 0.44644 0
-0.977086 0.528632 0
-0.895268 0.50967 0
-1.05065 0.463786 0
-0.978257 0.455113 0
-1.0589 0.547595 0
-0.977086 0.528632 0
-1.0424 0.379978 0
-0.979428 0.381594 0
-1.05065 0.463786 0
-0.978257 0.455113 0
-0.979428 0.381594 0
-0.916454 0.383209 0
-0.978257 0.455113 0
-0.905861 0.44644 0
1.12325 -0.448554 0
1.14534 -0.487198 0
1.16697 -0.432782 0
1.20126 -0.471755 0
1.10117 -0.40991 0
1.12325 -0.448554 0
1.13267 -0.39381 0
1.16697 -0.432782 0
1.06968 -0.42601 0
1.07954 -0.464326 0
1.10117 -0.40991 0
1.12325 -0.448554 0
1.07954 -0.464326 0
1.08941 -0.502642 0
1.12325 -0.448554 0
1.14534 -0.487198 0
-0.226334 0.600098 0
-0.170992 0.612262 0
-0.228283 0.643062 0
-0.183447 0.654675 0
-0.228283 0.643062 0
-0.183447 0.654675 0
-0.230231 0.686026 0
-0.195902 0.697089 0
-0.273118 0.631449 0
-0.228283 0.643062 0
-0.26456 0.674964 0
-0.230231 0.686026 0
-0.281675 0.587934 0
-0.226334 0.600098 0
-0.273118 0.631449 0
-0.228283 0.643062 0
-0.534799 0.751046 0
-0.48188 0.721092 0
-0.496778 0.813164 0
-0.439462 0.767695 0
-0.496778 0.813164 0
-0.439462 0.767695 0
-0.458757 0.875283 0
-0.397044 0.814299 0
-0.554094 0.858633 0
-0.496778 0.813164 0
-0.52047 0.936267 0
-0.458757 0.875283 0
-0.587719 0.781 0
-0.534799 0.751046 0
-0.554094 0.858633 0
-0.496778 0.813164 0
0.111486 1.26415 0
0.0849946 1.32795 0
0.0440761 1.24426 0
0.0282489 1.2917 0
0.178895 1.28405 0
0.14174 1.36421 0
0.111486 1.26415 0
0.0849946 1.32795 0
0.14174 1.36421 0
0.104585 1.44437 0
0.0849946 1.32795 0
0.0585036 1.39175 0
0.0849946 1.32795 0
0.0585036 1.39175 0
0.0282489 1.2917 0
0.0124217 1.33913 0
1.64788 -1.02412 0
1.57957 -1.0366 0
1.66131 -1.09345 0
1.59038 -1.10531 0
1.66131 -1.09345 0
1.59038 -1.10531 0
1.67474 -1.16278 0
1.60119 -1.17401 0
1.73223 -1.08159 0
1.66131 -1.09345 0
1.74828 -1.15155 0
1.67474 -1.16278 0
1.71618 -1.01164 0
1.64788 -1.02412 0
1.73223 -1.08159 0
1.66131 -1.09345 0
0.68815 -0.885417 0
0.682819 -0.820074 0
0.620596 -0.883913 0
0.614279 -0.810546 0
0.69348 -0.95076 0
0.68815 -0.885417 0
0.626912 -0.95728 0
0.620596 -0.883913 0
0.760049 -0.944241 0
0.755704 -0.886922 0
0.69348 -0.95076 0
0.68815 -0.885417 0
0.755704 -0.886922 0
0.751359 -0.829603 0
0.68815 -0.885417 0
0.682819 -0.820074 0
2.13339 -1.03062 0
2.05758 -1.03659 0
2.18103 -1.10972 0
2.0899 -1.13215 0
2.18103 -1.10972 0
2.0899 -1.13215 0
2.22868 -1.18881 0
2.12223 -1.22771 0
2.27216 -1.08728 0
2.18103 -1.10972 0
2.33512 -1.14991 0
2.22868 -1.18881 0
2.2092 -1.02465 0
2.13339 -1.03062 0
2.27216 -1.08728 0
2.18103 -1.10972 0
-0.898633 0.101586 0
-0.951497 0.0658189 0
-0.852578 0.0475679 0
-0.911806 0.0150357 0
-0.944688 0.155604 0
-0.991188 0.116602 0
-0.898633 0.101586 0
-0.951497 0.0658189 0
-0.991188 0.116602 0
-1.03769 0.0775998 0
-0.951497 0.0658189 0
-1.00436 0.0300516 0
-0.951497 0.0658189 0
-1.00436 0.0300516 0
-0.911806 0.0150357 0
-0.971033 -0.0174965 0
1.43323 0.478726 0
1.49814 0.456709 0
1.45763 0.53358 0
1.51581 0.513383 0
1.45763 0.53358 0
1.51581 0.513383 0
1.48202 0.588434 0
1.53349 0.570057 0
1.39944 0.553777 0
1.45763 0.53358 0
1.43056 0.606811 0
1.48202 0.588434 0
1.36833 0.500743 0
1.43323 0.478726 0
1.39944 0.553777 0
1.45763 0.53358 0
-0.387057 0.912084 0
-0.34175 0.849844 0
-0.315356 0.948884 0
-0.286456 0.88539 0
-0.432363 0.974323 0
-0.387057 0.912084 0
-0.344256 1.01238 0
-0.315356 0.948884 0
-0.52047 0.936267 0
-0.458757 0.875283 0
-0.432363 0.974323 0
-0.387057 0.912084 0
-0.458757 0.875283 0
-0.397044 0.814299 0
-0.387057 0.912084 0
-0.34175 0.849844 0
-0.334802 0.619429 0
-0.371578 0.576057 0
-0.281675 0.587934 0
-0.323599 0.544928 0
-0.387928 0.650925 0
-0.419557 0.607185 0
-0.334802 0.619429 0
-0.371578 0.576057 0
-0.419557 0.607185 0
-0.451186 0.563446 0
-0.371578 0.576057 0
-0.408355 0.532684 0
-0.371578 0.576057 0
-0.408355 0.532684 0
-0.323599 0.544928 0
-0.365523 0.501922 0
-0.722021 -0.940145 0
-0.707035 -1.00195 0
-0.661278 -0.92502 0
-0.642918 -0.983111 0
-0.737007 -0.878338 0
-0.722021 -0.940145 0
-0.679638 -0.866928 0
-0.661278 -0.92502 0
-0.794377 -0.889749 0
-0.782765 -0.95527 0
-0.737007 -0.878338 0
-0.722021 -0.940145 0
-0.782765 -0.95527 0
-0.771152 -1.02079 0
-0.722021 -0.940145 0
-0.707035 -1.00195 0
-1.05089 -0.897524 0
-1.05639 -0.97196 0
-0.985801 -0.899963 0
-0.986549 -0.971905 0
-1.05639 -0.97196 0
-1.06188 -1.04639 0
-0.986549 -0.971905 0
-0.987297 -1.04385 0
-0.986549 -0.971905 0
-0.987297 -1.04385 0
-0.916711 -0.971851 0
-0.912713 -1.0413 0
-0.985801 -0.899963 0
-0.986549 -0.971905 0
-0.920709 -0.902402 0
-0.916711 -0.971851 0
-0.446272 0.200312 0
-0.422211 0.156948 0
-0.405731 0.202573 0
-0.383171 0.167421 0
1.84891 1.43089 0
1.76331 1.42688 0
1.84788 1.34569 0
1.76442 1.34283 0
1.76331 1.42688 0
1.67771 1.42287 0
1.76442 1.34283 0
1.68096 1.33998 0
1.76442 1.34283 0
1.68096 1.33998 0
1.76553 1.25879 0
1.68421 1.25708 0
1.84788 1.34569 0
1.76442 1.34283 0
1.84684 1.26049 0
1.76553 1.25879 0
1.27177 0.255022 0
1.31603 0.243007 0
1.28719 0.296149 0
1.32922 0.284413 0
1.22752 0.267036 0
1.27177 0.255022 0
1.24516 0.307885 0
1.28719 0.296149 0
0.387807 -0.710968 0
0.37733 -0.665482 0
0.340597 -0.720203 0
0.333202 -0.674254 0
0.398284 -0.756453 0
0.387807 -0.710968 0
0.347992 -0.766151 0
0.340597 -0.720203 0
0.448576 -0.746755 0
0.435017 -0.701733 0
0.398284 -0.756453 0
0.387807 -0.710968 0
0.435017 -0.701733 0
0.421457 -0.656711 0
0.387807 -0.710968 0
0.37733 -0.665482 0
2.48008 -1.06003 0
2.58974 -1.07433 0
2.50134 -0.956789 0
2.59697 -0.972038 0
2.37042 -1.04573 0
2.48008 -1.06003 0
2.40571 -0.94154 0
2.50134 -0.956789 0
2.33512 -1.14991 0
2.45882 -1.16326 0
2.37042 -1.04573 0
2.48008 -1.06003 0
2.45882 -1.16326 0
2.58252 -1.17661 0
2.48008 -1.06003 0
[...]
POINT_DATA 43064
SCALARS solution_0 double 1
LOOKUP_TABLE default
0.989384 0.990254 0.988458 0.989469 0.988454 0.989384 0.987352 0.988458 0.989591 0.990404 0.988454 0.989384 0.990404 0.991159 0.989384 0.990254 1.04752 1.05058 1.04841 1.05135 1.04447 1.04752 1.04547 1.04841 1.04358 1.04673 1.04447 1.04752 1.04673 1.0499 1.04752 1.05058 1.04765 1.04863 1.05293 1.05356 1.04611 1.04765 1.05184 1.05293 1.04086 1.04274 1.04611 1.04765 1.04274 1.04404 1.04765 1.04863 1.04266 1.04045 1.04025 1.03779 1.04526 1.04332 1.04266 1.04045 1.04332 1.04121 1.04045 1.03808 1.00319 1.00212 1.00662 1.00514 0.999725 0.99906 1.00319 1.00212 0.99906 0.998318 1.00212 1.00102 1.00212 1.00102 1.00514 1.0037 1.00239 1.00158 1.00137 1.00027 1.00317 1.00239 1.00225 1.00137 1.00423 1.00391 1.00317 1.00239 1.00391 1.00316 1.00239 1.00158 0.949947 0.95028 0.939142 0.939555 0.949618 0.949947 0.938728 0.939142 0.95865 0.958925 0.949618 0.949947 0.958925 0.959204 0.949947 0.95028 0.981403 0.981402 0.979682 0.979462 0.981734 0.981403 0.980171 0.979682 0.983019 0.982801 0.981734 0.981403 0.982801 0.982936 0.981403 0.981402 0.989436 0.990376 0.988724 0.989741 0.988724 0.989741 0.98774 0.9889 0.987548 0.988724 0.98647 0.98774 0.988359 0.989436 0.987548 0.988724 1.05954 1.06098 1.06135 1.063 1.0579 1.05911 1.05954 1.06098 1.05911 1.06024 1.06098 1.06222 1.06098 1.06222 1.063 1.06435 1.04658 1.04393 1.04446 1.04189 1.04921 1.04658 1.04702 1.04446 1.05138 1.04867 1.04921 1.04658 1.04867 1.04596 1.04658 1.04393 1.03905 1.03458 1.04284 1.03828 1.04434 1.03905 1.04822 1.04284 1.04043 1.03527 1.04434 1.03905 1.03527 1.03094 1.03905 1.03458 0.986193 0.986027 0.98701 0.986534 0.985592 0.985706 0.986193 0.986027 0.985706 0.985591 0.986027 0.985747 0.986027 0.985747 0.986534 0.986056 0.998633 0.998281 1.00047 1.00015 0.998837 0.998633 1.0006 1.00047 0.997069 0.996824 0.998837 0.998633 0.996824 0.996506 0.998633 0.998281 1.03526 1.03209 1.03358 1.03006 1.03857 1.03526 1.03741 1.03358 1.03961 1.0368 1.03857 1.03526 1.0368 1.03402 1.03526 1.03209 1.01985 1.02463 1.02243 1.02607 1.02243 1.02607 1.02469 1.02741 1.01902 1.02243 1.02208 1.02469 1.01561 1.01985 1.01902 1.02243 1.01512 1.01526 1.01922 1.01905 1.01922 1.01905 1.02333 1.02291 1.01937 1.01922 1.02379 1.02333 1.01499 1.01512 1.01937 1.01922 1.06178 1.06377 1.05861 1.0601 1.06483 1.06743 1.06178 1.06377 1.06743 1.0708 1.06377 1.06628 1.06377 1.06628 1.0601 1.06189 0.991837 0.992133 0.987689 0.987944 0.987689 0.987944 0.983291 0.983507 0.987445 0.987689 0.983081 0.983291 0.991556 0.991837 0.987445 0.987689 1.01463 1.02004 1.0146 1.02074 1.00943 1.01463 1.00876 1.0146 1.0098 1.01431 1.00943 1.01463 1.01431 1.01895 1.01463 1.02004 0.985793 0.986216 0.98097 0.980518 0.98097 0.980518 0.975805 0.974283 0.981458 0.98097 0.977351 0.975805 0.985416 0.985793 0.981458 0.98097 0.989563 0.990166 0.987422 0.988554 0.991504 0.991689 0.989563 0.990166 0.991689 0.991962 0.990166 0.99079 0.990166 0.99079 0.988554 0.989591 1.04814 1.04526 1.04954 1.04719 1.04954 1.04719 1.05093 1.04901 1.05199 1.04954 1.05291 1.05093 1.05115 1.04814 1.05199 1.04954 1.02765 1.02684 1.03222 1.03089 1.02857 1.02765 1.03365 1.03222 1.02379 1.02333 1.02857 1.02765 1.02333 1.02291 1.02765 1.02684 1.01503 1.01051 1.01561 1.01022 1.01473 1.01086 1.01503 1.01051 1.01086 1.00704 1.01051 1.00608 1.01051 1.00608 1.01022 1.00501 0.984773 0.98375 0.984741 0.983874 0.985529 0.984773 0.985369 0.984741 0.985792 0.984922 0.985529 0.984773 0.984922 0.98377 0.984773 0.98375 0.988359 0.987548 0.987521 0.986651 0.987548 0.98647 0.986651 0.985498 0.986651 0.985498 0.985868 0.984662 0.987521 0.986651 0.986787 0.985868 0.975318 0.969546 0.97311 0.967465 1.08377 1.08388 1.07814 1.07841 1.08388 1.08399 1.07841 1.07869 1.07841 1.07869 1.07365 1.07408 1.07814 1.07841 1.07325 1.07365 1.0448 1.04129 1.04628 1.04338 1.04851 1.0448 1.04934 1.04628 1.02526 1.02908 1.02253 1.02621 1.02161 1.02526 1.01903 1.02253 1.02395 1.02773 1.02161 1.02526 1.02773 1.03169 1.02526 1.02908 0.981414 0.979885 0.986784 0.98541 0.98299 0.981414 0.988189 0.986784 0.977351 0.975576 0.98299 0.981414 0.975576 0.973857 0.981414 0.979885 1.04529 1.0477 1.04707 1.04939 1.04288 1.04529 1.04477 1.04707 1.04104 1.04352 1.04288 1.04529 1.04352 1.04596 1.04529 1.0477 0.946009 0.946618 0.933218 0.93396 0.933218 0.93396 0.914137 0.915225 0.932683 0.933218 0.913369 0.914137 0.945594 0.946009 0.932683 0.933218 0.983875 0.982975 0.982804 0.981746 0.984855 0.983875 0.983944 0.982804 0.985675 0.984816 0.984855 0.983875 0.984816 0.984031 0.983875 0.982975 0.989475 0.991057 0.988087 0.9892 0.99105 0.993251 0.989475 0.991057 0.993251 0.995028 0.991057 0.99221 0.991057 0.99221 0.9892 0.989929 1.04093 1.03857 1.0394 1.03741 1.0434 1.04093 1.04148 1.0394 1.04534 1.04242 1.0434 1.04093 1.04242 1.03961 1.04093 1.03857 1.04265 1.03832 1.03637 1.03228 1.04689 1.04265 1.04043 1.03637 1.05514 1.05069 1.04689 1.04265 1.05069 1.04612 1.04265 1.03832 1.04651 1.04547 1.04936 1.04841 1.04936 1.04841 1.05221 1.05135 1.05042 1.04936 1.05315 1.05221 1.04768 1.04651 1.05042 1.04936 0.969537 0.965012 0.967455 0.959758 0.971524 0.969864 0.969537 0.965012 0.969864 0.968084 0.965012 0.960066 0.965012 0.960066 0.959758 0.95109 0.987005 0.986498 0.983585 0.983052 0.986498 0.98591 0.983052 0.98253 0.983052 0.98253 0.979748 0.979194 0.983585 0.983052 0.980356 0.979748 0.99584 0.997354 0.998731 1.00045 0.998731 1.00045 1.00156 1.00352 0.996945 0.998731 0.999515 1.00156 0.994273 0.99584 0.996945 0.998731 1.08377 1.09074 1.08388 1.09067 1.09074 1.09947 1.09067 1.09907 1.09067 1.09907 1.09059 1.09869 1.08388 1.09067 1.08399 1.09059 1.03792 1.04089 1.04025 1.04289 1.03586 1.03909 1.03792 1.04089 1.03909 1.0421 1.04089 1.04364 1.04089 1.04364 1.04289 1.04535 0.979947 0.980228 0.977128 0.977263 0.980228 0.980697 0.977263 0.9776 0.977263 0.9776 0.973625 0.973766 0.977128 0.977263 0.973661 0.973625 0.985792 0.986243 0.984922 0.985337 0.986243 0.986787 0.985337 0.985868 0.985337 0.985868 0.984146 0.984662 0.984922 0.985337 0.98377 0.984146 0.98599 0.985205 0.987133 0.986472 0.986711 0.98599 0.987759 0.987133 0.985675 0.984855 0.986711 0.98599 0.984855 0.983944 0.98599 0.985205 1.00934 1.0137 1.00744 1.0115 1.00507 1.00934 1.00345 1.00744 1.00647 1.01101 1.00507 1.00934 1.01101 1.01566 1.00934 1.0137 1.0696 1.07106 1.06757 1.06959 1.06833 1.0696 1.0658 1.06757 1.07059 1.07148 1.06833 1.0696 1.07148 1.07248 1.0696 1.07106 1.0638 1.0658 1.06349 1.06562 1.06349 1.06562 1.06308 1.06533 1.06123 1.06349 1.06085 1.06308 1.06157 1.0638 1.06123 1.06349 1.07048 1.0703 1.07204 1.0722 1.07204 1.0722 1.07383 1.07437 1.07184 1.07204 1.07326 1.07383 1.07063 1.07048 1.07184 1.07204 1.10438 1.111 1.10308 1.10999 0.952319 0.958134 0.953659 0.958165 0.951849 0.958492 0.952319 0.958134 0.958492 0.964069 0.958134 0.962976 0.958134 0.962976 0.958165 0.962107 1.07749 1.07954 1.07881 1.08104 1.07628 1.07816 1.07749 1.07954 1.07816 1.07992 1.07954 1.08148 1.07954 1.08148 1.08104 1.08317 1.06908 1.06783 1.06852 1.06699 1.06783 1.06649 1.06699 1.06527 1.06699 1.06527 1.06637 1.06435 1.06852 1.06699 1.06812 1.06637 1.00183 0.999833 1.00109 0.999428 1.004 1.00183 1.0028 1.00109 1.00499 1.00243 1.004 1.00183 1.00243 1.00015 1.00183 0.999833 1.0465 1.0419 1.05016 1.04557 1.05191 1.0465 1.05557 1.05016 1.04822 1.04284 1.05191 1.0465 1.04284 1.03828 1.0465 1.0419 1.02787 1.03098 1.02668 1.03006 1.02509 1.02787 1.02366 1.02668 1.02623 1.02869 1.02509 1.02787 1.02869 1.03143 1.02787 1.03098 0.99916 0.998079 1.00192 1.00092 0.996218 0.995055 0.99916 0.998079 0.995055 0.993948 0.998079 0.997076 0.998079 0.997076 1.00092 1.00002 1.02425 1.02847 1.01717 1.02185 1.02083 1.02425 1.01351 1.01717 1.02746 1.03066 1.02083 1.02425 1.03066 1.03443 1.02425 1.02847 0.995505 0.994914 0.994698 0.994082 0.995953 0.995417 0.995505 0.994914 0.995417 0.994972 0.994914 0.994463 0.994914 0.994463 0.994082 0.99368 1.02729 1.02379 1.03153 1.02857 1.03153 1.02857 1.03597 1.03365 1.03461 1.03153 1.03847 1.03597 1.03089 1.02729 1.03461 1.03153 0.973196 0.969386 0.975312 0.97268 0.976564 0.973196 0.97768 0.975312 0.975477 0.971121 0.976564 0.973196 0.971121 0.966162 0.973196 0.969386 1.09564 1.09899 1.09206 1.09414 1.09206 1.09414 1.08819 1.08882 1.0898 1.09206 1.08713 1.08819 1.09233 1.09564 1.0898 1.09206 1.01084 1.01012 1.01413 1.01272 1.01012 1.00921 1.01272 1.01128 1.01272 1.01128 1.01562 1.01354 1.01413 1.01272 1.01775 1.01562 0.978321 0.979204 0.980171 0.980865 0.976167 0.977305 0.978321 0.979204 0.977305 0.978642 0.979204 0.980282 0.979204 0.980282 0.980865 0.981746 0.977828 0.977485 0.979727 0.979461 0.975525 0.975109 0.977828 0.977485 0.975109 0.975092 0.977485 0.977468 0.977485 0.977468 0.979461 0.979462 0.969546 0.969636 0.963035 0.964106 0.975318 0.974646 0.969546 0.969636 0.974646 0.97483 0.969636 0.970528 0.969636 0.970528 0.964106 0.965693 1.03136 1.02417 1.03223 1.02368 1.03083 1.02488 1.03136 1.02417 1.02488 1.019 1.02417 1.01687 0.983743 0.987346 0.987415 0.990187 0.98084 0.983743 0.985211 0.987415 0.979267 0.983917 0.983743 0.987346 0.975991 0.978497 0.977619 0.980356 0.97306 0.975991 0.974527 0.977619 0.971856 0.974809 0.97306 0.975991 0.974809 0.977256 0.975991 0.978497 1.04526 1.04266 1.04719 1.04496 1.04266 1.04025 1.04496 1.04289 1.04496 1.04289 1.04711 1.04535 1.04719 1.04496 1.04901 1.04711 0.982267 0.980865 0.982975 0.981746 0.983444 0.982267 0.984031 0.982975 0.983019 0.981734 0.983444 0.982267 0.981734 0.980171 0.982267 0.980865 1.01499 1.01473 1.01875 1.01846 1.01875 1.01846 1.02253 1.0222 1.01905 1.01875 1.02291 1.02253 1.01526 1.01499 1.01905 1.01875 0.971529 0.973001 0.96539 0.967455 0.969996 0.971529 0.963265 0.96539 0.975993 0.977087 0.969996 0.971529 0.977087 0.978147 0.971529 0.973001 0.957269 0.959758 0.947884 0.95109 0.963265 0.96539 0.954628 0.957269 0.96539 0.967455 0.957269 0.959758 0.988423 0.991249 0.989286 0.992573 0.989286 0.992573 0.990222 0.993948 0.985793 0.989286 0.986216 0.990222 0.985416 0.988423 0.985793 0.989286 0.923773 0.939142 0.924216 0.939555 0.901018 0.923773 0.901591 0.924216 0.900441 0.923323 0.901018 0.923773 0.923323 0.938728 0.923773 0.939142 1.02604 1.02821 1.02273 1.02486 1.02821 1.03036 1.02486 1.02698 1.02486 1.02698 1.02147 1.02358 1.02273 1.02486 1.01935 1.02147 1.01906 1.0176 1.01743 1.01581 1.0202 1.01906 1.01864 1.01743 1.02203 1.02093 1.0202 1.01906 1.02093 1.01958 1.01906 1.0176 1.03251 1.03473 1.03607 1.03746 1.02911 1.03208 1.03251 1.03473 1.03208 1.03498 1.03473 1.03684 1.03473 1.03684 1.03746 1.0387 0.990156 0.992632 0.988864 0.99105 0.987488 0.990156 0.986442 0.988864 0.988585 0.991501 0.987488 0.990156 0.991501 0.994273 0.990156 0.992632 1.02002 1.01995 1.0188 1.01864 1.0199 1.02002 1.01883 1.0188 1.0213 1.0212 1.02002 1.01995 1.0492 1.05248 1.05209 1.05521 1.05209 1.05521 1.05541 1.05833 1.04895 1.05209 1.05245 1.05541 1.04589 1.0492 1.04895 1.05209 0.992912 0.991781 0.992291 0.991356 0.991781 0.990568 0.991356 0.990324 0.991356 0.990324 0.990836 0.990004 0.992291 0.991356 0.99162 0.990836 1.07772 1.07533 1.07912 1.07626 1.07533 1.07326 1.07626 1.07383 1.07626 1.07383 1.07708 1.07437 1.07912 1.07626 1.08037 1.07708 1.06912 1.06866 1.0718 1.07157 1.0718 1.07157 1.07476 1.07476 1.07204 1.0718 1.07476 1.07476 1.0696 1.06912 1.07204 1.0718 1.03578 1.03135 1.03309 1.02919 1.03135 1.02704 1.02919 1.02535 1.02919 1.02535 1.02698 1.02358 1.03309 1.02919 1.03036 1.02698 0.962615 0.962146 0.95545 0.954947 0.95545 0.954947 0.946326 0.945594 0.956075 0.95545 0.947204 0.946326 0.96321 0.962615 0.956075 0.95545 1.05666 1.0555 1.05758 1.0561 1.05758 1.0561 1.05847 1.0567 1.05911 1.05758 1.06024 1.05847 1.0579 1.05666 1.05911 1.05758 0.990836 0.990004 0.990819 0.989706 0.990819 0.989706 0.990864 0.989469 0.99183 0.990819 0.992083 0.990864 0.99162 0.990836 0.99183 0.990819 1.10458 1.0979 1.10396 1.09826 1.10512 1.09751 1.10458 1.0979 1.09751 1.09128 1.0979 1.09227 1.0979 1.09227 1.09826 1.09322 0.982083 0.98377 0.982411 0.984146 0.982411 0.984146 0.982909 0.984662 0.980228 0.982411 0.980697 0.982909 0.979947 0.982083 0.980228 0.982411 0.995918 0.996781 0.995636 0.996576 0.996781 0.996824 0.996576 0.996677 0.996576 0.996677 0.996403 0.996542 0.995636 0.996576 0.995391 0.996403 0.994698 0.994082 0.993421 0.993143 0.994082 0.99368 0.993143 0.99302 0.993143 0.99302 0.992116 0.992311 0.993421 0.993143 0.991962 0.992116 1.04129 1.03752 1.04338 1.04018 1.09965 1.09791 1.09138 1.08973 1.09138 1.08973 1.08493 1.08335 1.09279 1.09138 1.08626 1.08493 1.10117 1.09965 1.09279 1.09138 1.0778 1.08196 1.07751 1.08139 1.07772 1.08223 1.0778 1.08196 1.08223 1.08813 1.08196 1.08732 1.08196 1.08732 1.08139 1.08626 0.983291 0.983507 0.978246 0.978455 0.978246 0.978455 0.972778 0.972984 0.978042 0.978246 0.972575 0.972778 0.983081 0.983291 0.978042 0.978246 1.00047 1.00507 0.999109 1.00345 0.995909 1.00047 0.994793 0.999109 0.996851 1.00163 0.995909 1.00047 1.00163 1.00647 1.00047 1.00507 0.969386 0.962557 0.97268 0.965493 0.966162 0.959625 0.969386 0.962557 0.959625 0.951812 0.962557 0.954568 0.962557 0.954568 0.965493 0.957229 0.98013 0.980619 0.982152 0.982431 0.982152 0.982431 0.98375 0.983874 0.982083 0.982152 0.98377 0.98375 0.979947 0.98013 0.982083 0.982152 1.0775 1.06901 1.08028 1.07178 1.06901 1.06221 1.07178 1.06496 1.07178 1.06496 1.07446 1.06766 1.08028 1.07178 1.08296 1.07446 1.0043 1.00943 1.00363 1.00876 0.999241 1.0043 0.998566 1.00363 0.999694 1.00472 0.999241 1.0043 1.00472 1.0098 1.0043 1.00943 0.988484 0.987018 0.985211 0.983662 0.991202 0.989838 0.988484 0.987018 0.989838 0.988853 0.987018 0.986023 0.987018 0.986023 0.983662 0.982721 1.01841 1.01958 1.01976 1.02153 1.01976 1.02153 1.02116 1.02366 1.01778 1.01976 1.01841 1.02116 1.01712 1.01841 1.01778 1.01976 1.04537 1.04519 1.04881 1.04867 1.04561 1.04537 1.04901 1.04881 1.04226 1.04198 1.04561 1.04537 1.04198 1.04177 1.04537 1.04519 0.983227 0.984033 0.984183 0.984595 0.982431 0.983227 0.983874 0.984183 0.980619 0.982 0.982431 0.983227 0.982 0.983297 0.983227 0.984033 0.997859 0.998312 0.997577 0.997856 0.997405 0.998004 0.997859 0.998312 0.998004 0.998813 0.998312 0.99886 0.998312 0.99886 0.997856 0.998183 1.05305 1.05559 1.05193 1.05462 1.05064 1.05305 1.04934 1.05193 1.05188 1.05409 1.05064 1.05305 1.05409 1.05645 1.05305 1.05559 1.04391 1.04217 1.04121 1.03935 1.04681 1.04517 1.04391 1.04217 1.04517 1.04338 1.04217 1.04018 0.985634 0.985425 0.985588 0.985591 0.985771 0.985634 0.985625 0.985588 0.985861 0.985673 0.985771 0.985634 0.985673 0.985369 0.985634 0.985425 1.07025 1.07053 1.07049 1.07096 1.06978 1.07025 1.06984 1.07049 1.06994 1.07025 1.06978 1.07025 1.07025 1.07038 1.07025 1.07053 0.989544 0.98962 0.988486 0.988535 0.990568 0.990547 0.989544 0.98962 0.990547 0.990384 0.98962 0.989607 0.98962 0.989607 0.988535 0.988513 1.0634 1.05493 1.06719 1.05868 1.05493 1.04822 1.05868 1.05191 1.05868 1.05191 1.06237 1.05557 1.06719 1.05868 1.0709 1.06237 1.01151 1.01536 1.0135 1.01737 1.0135 1.01737 1.01539 1.01935 1.00949 1.0135 1.01129 1.01539 1.00756 1.01151 1.00949 1.0135 1.06972 1.06929 1.07063 1.07048 1.06891 1.06822 1.06972 1.06929 1.06822 1.06747 1.06929 1.06881 1.06929 1.06881 1.07048 1.0703 0.984798 0.983778 0.98647 0.985498 0.982663 0.981588 0.984798 0.983778 0.981588 0.980697 0.983778 0.982909 0.983778 0.982909 0.985498 0.984662 1.04924 1.04782 1.04681 1.04517 1.05188 1.05064 1.04924 1.04782 1.05064 1.04934 1.04782 1.04628 1.04782 1.04628 1.04517 1.04338 0.984879 0.983522 0.979527 0.978514 0.979527 0.978514 0.973686 0.973075 0.980518 0.979527 0.974283 0.973686 0.986216 0.984879 0.980518 0.979527 1.07493 1.0781 1.07784 1.08109 1.07145 1.07446 1.07493 1.0781 1.07446 1.07805 1.0781 1.08182 1.0781 1.08182 1.08109 1.08487 1.11579 1.13201 1.11607 1.13281 1.11607 1.13281 1.11614 1.1337 1.10502 1.11607 1.10481 1.11614 1.10512 1.11579 1.10502 1.11607 1.05223 1.04901 1.05221 1.04881 1.05221 1.04881 1.05223 1.04867 1.05572 1.05221 1.05593 1.05223 1.05555 1.05223 1.05572 1.05221 0.991584 0.9907 0.989824 0.988844 0.993793 0.993216 0.991584 0.9907 0.993216 0.991959 0.9907 0.989141 0.9907 0.989141 0.988844 0.987233 1.00311 1.00199 1.00756 1.00623 0.998581 0.997657 1.00311 1.00199 0.997657 0.996667 1.00199 1.00082 1.00199 1.00082 1.00623 1.00485 1.08797 1.08148 1.08889 1.08241 1.08148 1.07552 1.08241 1.07645 1.08241 1.07645 1.08283 1.07685 1.08889 1.08241 1.08932 1.08283 1.02625 1.02572 1.03005 1.02928 1.02684 1.02625 1.03089 1.03005 1.02291 1.02253 1.02684 1.02625 1.02253 1.0222 1.02625 1.02572 1.04534 1.04603 1.04242 1.04366 1.04603 1.04656 1.04366 1.04476 1.04366 1.04476 1.04132 1.04296 1.04242 1.04366 1.03961 1.04132 1.00311 1.00756 1.00438 1.00949 1.00438 1.00949 1.00553 1.01129 0.999259 1.00438 0.999804 1.00553 0.998581 1.00311 0.999259 1.00438 0.993793 0.994736 0.995484 0.996689 0.994736 0.995028 0.996689 0.99746 0.996689 0.99746 0.998877 1.00022 0.995484 0.996689 0.997378 0.998877 0.969772 0.969337 0.972916 0.972482 0.969337 0.969406 0.972482 0.972495 0.972482 0.972495 0.975109 0.975092 0.972916 0.972482 0.975525 0.975109 1.07235 1.06573 1.07726 1.07157 0.980993 0.979727 0.981143 0.979461 0.981143 0.979461 0.981402 0.979462 0.982479 0.981143 0.982936 0.981402 0.982074 0.980993 0.982479 0.981143 1.00045 1.00225 1.00352 1.00557 0.997354 0.998928 1.00045 1.00225 0.998928 1.00039 1.00225 1.00393 1.00225 1.00393 1.00557 1.00749 0.996947 0.997405 0.997523 0.997859 0.997523 0.997859 0.997344 0.997577 0.997239 0.997523 0.997145 0.997344 0.996558 0.996947 0.997239 0.997523 0.977745 0.979682 0.977468 0.979462 0.975457 0.977745 0.975092 0.977468 0.976167 0.978321 0.975457 0.977745 0.978321 0.980171 0.977745 0.979682 1.07805 1.08218 1.08182 1.08602 1.08218 1.08712 1.08602 1.091 1.08602 1.091 1.08909 1.09401 1.08182 1.08602 1.08487 1.08909 0.986513 0.988087 0.985652 0.986825 0.985652 0.986825 0.984907 0.985756 0.984262 0.985652 0.983886 0.984907 0.984707 0.986513 0.984262 0.985652 0.980163 0.981544 0.978642 0.980282 0.981727 0.982873 0.980163 0.981544 0.982873 0.983944 0.981544 0.982804 0.981544 0.982804 0.980282 0.981746 0.979947 0.977128 0.98013 0.9772 0.977128 0.973661 0.9772 0.973528 0.9772 0.973528 0.977527 0.973606 0.98013 0.9772 0.980619 0.977527 0.981458 0.977351 0.985745 0.98299 0.985745 0.98299 0.989712 0.988189 0.988423 0.985745 0.991249 0.989712 0.985416 0.981458 0.988423 0.985745 1.00163 1.00276 1.00647 1.00776 0.996851 0.997814 1.00163 1.00276 0.997814 0.998566 1.00276 1.00363 1.00276 1.00363 1.00776 1.00876 0.978276 0.972824 0.978514 0.973075 0.983301 0.978276 0.983522 0.978514 0.983081 0.978042 0.983301 0.978276 0.978042 0.972575 0.978276 0.972824 1.0154 1.01743 1.0138 1.01581 1.01362 1.0154 1.01201 1.0138 1.01495 1.01666 1.01362 1.0154 1.01666 1.01864 1.0154 1.01743 0.989772 0.990384 0.9897 0.990456 0.9897 0.990456 0.989436 0.990376 0.988701 0.9897 0.988359 0.989436 0.988929 0.989772 0.988701 0.9897 1.06642 1.06972 1.06837 1.07209 1.06972 1.07301 1.07209 1.07598 1.07209 1.07598 1.07442 1.07883 1.06837 1.07209 1.07026 1.07442 1.0623 1.06414 1.0622 1.06416 1.0622 1.06416 1.06245 1.06456 1.05998 1.0622 1.0601 1.06245 1.06019 1.0623 1.05998 1.0622 1.08173 1.07485 1.08502 1.07862 1.09071 1.08173 1.09326 1.08502 1.08794 1.0782 1.09071 1.08173 1.0782 1.0708 1.08173 1.07485 1.06116 1.05869 1.06025 1.05775 1.06025 1.05775 1.05948 1.05703 1.06277 1.06025 1.06197 1.05948 1.06365 1.06116 1.06277 1.06025 0.955755 0.954042 0.960745 0.958991 0.957772 0.955755 0.963035 0.960745 0.952125 0.950624 0.957772 0.955755 0.950624 0.9494 0.955755 0.954042 1.08749 1.0811 1.08973 1.08335 1.0957 1.08749 1.09791 1.08973 1.09326 1.08502 1.0957 1.08749 1.08502 1.07862 1.08749 1.0811 1.00776 1.00876 1.01299 1.0146 1.01299 1.0146 1.01841 1.02074 1.01101 1.01299 1.01566 1.01841 1.00647 1.00776 1.01101 1.01299 1.11094 1.11063 1.09947 1.09907 1.11063 1.11008 1.09907 1.09869 1.01273 1.01547 1.01116 1.01348 1.01547 1.01817 1.01348 1.01576 1.01348 1.01576 1.01167 1.01354 1.01116 1.01348 1.00975 1.01167 1.01377 1.00575 1.01504 1.00407 1.00559 1.00449 1.00699 1.00565 1.00423 1.00317 1.00559 1.00449 1.00317 1.00225 1.00449 1.00358 1.