# vtk DataFile Version 3.0
#This file was generated by the deal.II library on 2020/11/19 at 17:09:39
ASCII
DATASET UNSTRUCTURED_GRID

POINTS 71312 double
0.68 0.03 0
0.68 0.025 0
0.685 0.03 0
0.685 0.025 0
0.68 0.025 0
0.68 0.02 0
0.685 0.025 0
0.685 0.02 0
0.685 0.03 0
0.685 0.025 0
0.69 0.03 0
0.69 0.025 0
0.685 0.025 0
0.685 0.02 0
0.69 0.025 0
0.69 0.02 0
0.69 0.03 0
0.69 0.025 0
0.695 0.03 0
0.695 0.025 0
0.69 0.025 0
0.69 0.02 0
0.695 0.025 0
0.695 0.02 0
0.695 0.03 0
0.695 0.025 0
0.7 0.03 0
0.7 0.025 0
0.695 0.025 0
0.695 0.02 0
0.7 0.025 0
0.7 0.02 0
0.69 0.04 0
0.69 0.035 0
0.695 0.04 0
0.695 0.035 0
0.69 0.035 0
0.69 0.03 0
0.695 0.035 0
0.695 0.03 0
0.695 0.04 0
0.695 0.035 0
0.7 0.04 0
0.7 0.035 0
0.695 0.035 0
0.695 0.03 0
0.7 0.035 0
0.7 0.03 0
0.72 0.05 0
0.725 0.05 0
0.72 0.055 0
0.725 0.055 0
0.725 0.05 0
0.73 0.05 0
0.725 0.055 0
0.73 0.055 0
0.72 0.055 0
0.725 0.055 0
0.72 0.06 0
0.725 0.06 0
0.725 0.055 0
0.73 0.055 0
0.725 0.06 0
0.73 0.06 0
0.73 0.05 0
0.735 0.05 0
0.73 0.055 0
0.735 0.055 0
0.735 0.05 0
0.74 0.05 0
0.735 0.055 0
0.74 0.055 0
0.73 0.055 0
0.735 0.055 0
0.73 0.06 0
0.735 0.06 0
0.735 0.055 0
0.74 0.055 0
0.735 0.06 0
0.74 0.06 0
0.69 0.04 0
0.695 0.04 0
0.69 0.045 0
0.695 0.045 0
0.695 0.04 0
0.7 0.04 0
0.695 0.045 0
0.7 0.045 0
0.69 0.045 0
0.695 0.045 0
0.69 0.05 0
0.695 0.05 0
0.695 0.045 0
0.7 0.045 0
0.695 0.05 0
0.7 0.05 0
0.7 0.01 0
0.705 0.01 0
0.7 0.015 0
0.705 0.015 0
0.705 0.01 0
0.71 0.01 0
0.705 0.015 0
0.71 0.015 0
0.7 0.015 0
0.705 0.015 0
0.7 0.02 0
0.705 0.02 0
0.705 0.015 0
0.71 0.015 0
0.705 0.02 0
0.71 0.02 0
0.7 0.04 0
0.705 0.04 0
0.7 0.045 0
0.705 0.045 0
0.705 0.04 0
0.71 0.04 0
0.705 0.045 0
0.71 0.045 0
0.7 0.045 0
0.705 0.045 0
0.7 0.05 0
0.705 0.05 0
0.705 0.045 0
0.71 0.045 0
0.705 0.05 0
0.71 0.05 0
0.69 0.01 0
0.695 0.01 0
0.69 0.015 0
0.695 0.015 0
0.695 0.01 0
0.7 0.01 0
0.695 0.015 0
0.7 0.015 0
0.69 0.015 0
0.695 0.015 0
0.69 0.02 0
0.695 0.02 0
0.695 0.015 0
0.7 0.015 0
0.695 0.02 0
0.7 0.02 0
0.1 0.01 0
0.105 0.01 0
0.1 0.015 0
0.105 0.015 0
0.105 0.01 0
0.11 0.01 0
0.105 0.015 0
0.11 0.015 0
0.1 0.015 0
0.105 0.015 0
0.1 0.02 0
0.105 0.02 0
0.105 0.015 0
0.11 0.015 0
0.105 0.02 0
0.11 0.02 0
0.09 0.01 0
0.095 0.01 0
0.09 0.015 0
0.095 0.015 0
0.095 0.01 0
0.1 0.01 0
0.095 0.015 0
0.1 0.015 0
0.09 0.015 0
0.095 0.015 0
0.09 0.02 0
0.095 0.02 0
0.095 0.015 0
0.1 0.015 0
0.095 0.02 0
0.1 0.02 0
0.11 0.03 0
0.11 0.025 0
0.115 0.03 0
0.115 0.025 0
0.11 0.025 0
0.11 0.02 0
0.115 0.025 0
0.115 0.02 0
0.115 0.03 0
0.115 0.025 0
0.12 0.03 0
0.12 0.025 0
0.115 0.025 0
0.115 0.02 0
0.12 0.025 0
0.12 0.02 0
0.11 0.04 0
0.11 0.035 0
0.115 0.04 0
0.115 0.035 0
0.11 0.035 0
0.11 0.03 0
0.115 0.035 0
0.115 0.03 0
0.115 0.04 0
0.115 0.035 0
0.12 0.04 0
0.12 0.035 0
0.115 0.035 0
0.115 0.03 0
0.12 0.035 0
0.12 0.03 0
0.1 0.04 0
0.1 0.035 0
0.105 0.04 0
0.105 0.035 0
0.1 0.035 0
0.1 0.03 0
0.105 0.035 0
0.105 0.03 0
0.105 0.04 0
0.105 0.035 0
0.11 0.04 0
0.11 0.035 0
0.105 0.035 0
0.105 0.03 0
0.11 0.035 0
0.11 0.03 0
0.1 0.03 0
0.1 0.025 0
0.105 0.03 0
0.105 0.025 0
0.1 0.025 0
0.1 0.02 0
0.105 0.025 0
0.105 0.02 0
0.105 0.03 0
0.105 0.025 0
0.11 0.03 0
0.11 0.025 0
0.105 0.025 0
0.105 0.02 0
0.11 0.025 0
0.11 0.02 0
0.7 0.15 0
0.705 0.15 0
0.7 0.155 0
0.705 0.155 0
0.705 0.15 0
0.71 0.15 0
0.705 0.155 0
0.71 0.155 0
0.7 0.155 0
0.705 0.155 0
0.7 0.16 0
0.705 0.16 0
0.705 0.155 0
0.71 0.155 0
0.705 0.16 0
0.71 0.16 0
0.1 0.05 0
0.105 0.05 0
0.1 0.055 0
0.105 0.055 0
0.105 0.05 0
0.11 0.05 0
0.105 0.055 0
0.11 0.055 0
0.1 0.055 0
0.105 0.055 0
0.1 0.06 0
0.105 0.06 0
0.105 0.055 0
0.11 0.055 0
0.105 0.06 0
0.11 0.06 0
0.1 0.04 0
0.105 0.04 0
0.1 0.045 0
0.105 0.045 0
0.105 0.04 0
0.11 0.04 0
0.105 0.045 0
0.11 0.045 0
0.1 0.045 0
0.105 0.045 0
0.1 0.05 0
0.105 0.05 0
0.105 0.045 0
0.11 0.045 0
0.105 0.05 0
0.11 0.05 0
0.11 0.04 0
0.115 0.04 0
0.11 0.045 0
0.115 0.045 0
0.115 0.04 0
0.12 0.04 0
0.115 0.045 0
0.12 0.045 0
0.11 0.045 0
0.115 0.045 0
0.11 0.05 0
0.115 0.05 0
0.115 0.045 0
0.12 0.045 0
0.115 0.05 0
0.12 0.05 0
0.11 0.05 0
0.115 0.05 0
0.11 0.055 0
0.115 0.055 0
0.115 0.05 0
0.12 0.05 0
0.115 0.055 0
0.12 0.055 0
0.11 0.055 0
0.115 0.055 0
0.11 0.06 0
0.115 0.06 0
0.115 0.055 0
0.12 0.055 0
0.115 0.06 0
0.12 0.06 0
0.73 0.14 0
0.735 0.14 0
0.73 0.145 0
0.735 0.145 0
0.735 0.14 0
0.74 0.14 0
0.735 0.145 0
0.74 0.145 0
0.73 0.145 0
0.735 0.145 0
0.73 0.15 0
0.735 0.15 0
0.735 0.145 0
0.74 0.145 0
0.735 0.15 0
0.74 0.15 0
0.69 0.15 0
0.695 0.15 0
0.69 0.155 0
0.695 0.155 0
0.695 0.15 0
0.7 0.15 0
0.695 0.155 0
0.7 0.155 0
0.69 0.155 0
0.695 0.155 0
0.69 0.16 0
0.695 0.16 0
0.695 0.155 0
0.7 0.155 0
0.695 0.16 0
0.7 0.16 0
0.12 0.04 0
0.125 0.04 0
0.12 0.045 0
0.125 0.045 0
0.125 0.04 0
0.13 0.04 0
0.125 0.045 0
0.13 0.045 0
0.12 0.045 0
0.125 0.045 0
0.12 0.05 0
0.125 0.05 0
0.125 0.045 0
0.13 0.045 0
0.125 0.05 0
0.13 0.05 0
0.69 0.18 0
0.695 0.18 0
0.69 0.185 0
0.695 0.185 0
0.695 0.18 0
0.7 0.18 0
0.695 0.185 0
0.7 0.185 0
0.69 0.185 0
0.695 0.185 0
0.69 0.19 0
0.695 0.19 0
0.695 0.185 0
0.7 0.185 0
0.695 0.19 0
0.7 0.19 0
0.69 0.18 0
0.69 0.175 0
0.695 0.18 0
0.695 0.175 0
0.69 0.175 0
0.69 0.17 0
0.695 0.175 0
0.695 0.17 0
0.695 0.18 0
0.695 0.175 0
0.7 0.18 0
0.7 0.175 0
0.695 0.175 0
0.695 0.17 0
0.7 0.175 0
0.7 0.17 0
0.68 0.18 0
0.68 0.175 0
0.685 0.18 0
0.685 0.175 0
0.68 0.175 0
0.68 0.17 0
0.685 0.175 0
0.685 0.17 0
0.685 0.18 0
0.685 0.175 0
0.69 0.18 0
0.69 0.175 0
0.685 0.175 0
0.685 0.17 0
0.69 0.175 0
0.69 0.17 0
0.68 0.17 0
0.68 0.165 0
0.685 0.17 0
0.685 0.165 0
0.68 0.165 0
0.68 0.16 0
0.685 0.165 0
0.685 0.16 0
0.685 0.17 0
0.685 0.165 0
0.69 0.17 0
0.69 0.165 0
0.685 0.165 0
0.685 0.16 0
0.69 0.165 0
0.69 0.16 0
0.69 0.17 0
0.69 0.165 0
0.695 0.17 0
0.695 0.165 0
0.69 0.165 0
0.69 0.16 0
0.695 0.165 0
0.695 0.16 0
0.695 0.17 0
0.695 0.165 0
0.7 0.17 0
0.7 0.165 0
0.695 0.165 0
0.695 0.16 0
0.7 0.165 0
0.7 0.16 0
0.75 0.09 0
0.755 0.09 0
0.75 0.095 0
0.755 0.095 0
0.755 0.09 0
0.76 0.09 0
0.755 0.095 0
0.76 0.095 0
0.75 0.095 0
0.755 0.095 0
0.75 0.1 0
0.755 0.1 0
0.755 0.095 0
0.76 0.095 0
0.755 0.1 0
0.76 0.1 0
0.74 0.09 0
0.745 0.09 0
0.74 0.095 0
0.745 0.095 0
0.745 0.09 0
0.75 0.09 0
0.745 0.095 0
0.75 0.095 0
0.74 0.095 0
0.745 0.095 0
0.74 0.1 0
0.745 0.1 0
0.745 0.095 0
0.75 0.095 0
0.745 0.1 0
0.75 0.1 0
0.74 0.08 0
0.745 0.08 0
0.74 0.085 0
0.745 0.085 0
0.745 0.08 0
0.75 0.08 0
0.745 0.085 0
0.75 0.085 0
0.74 0.085 0
0.745 0.085 0
0.74 0.09 0
0.745 0.09 0
0.745 0.085 0
0.75 0.085 0
0.745 0.09 0
0.75 0.09 0
0.75 0.08 0
0.755 0.08 0
0.75 0.085 0
0.755 0.085 0
0.755 0.08 0
0.76 0.08 0
0.755 0.085 0
0.76 0.085 0
0.75 0.085 0
0.755 0.085 0
0.75 0.09 0
0.755 0.09 0
0.755 0.085 0
0.76 0.085 0
0.755 0.09 0
0.76 0.09 0
0.59 0.09 0
0.595 0.09 0
0.59 0.095 0
0.595 0.095 0
0.595 0.09 0
0.6 0.09 0
0.595 0.095 0
0.6 0.095 0
0.59 0.095 0
0.595 0.095 0
0.59 0.1 0
0.595 0.1 0
0.595 0.095 0
0.6 0.095 0
0.595 0.1 0
0.6 0.1 0
0.58 0.09 0
0.585 0.09 0
0.58 0.095 0
0.585 0.095 0
0.585 0.09 0
0.59 0.09 0
0.585 0.095 0
0.59 0.095 0
0.58 0.095 0
0.585 0.095 0
0.58 0.1 0
0.585 0.1 0
0.585 0.095 0
0.59 0.095 0
0.585 0.1 0
0.59 0.1 0
0.58 0.08 0
0.585 0.08 0
0.58 0.085 0
0.585 0.085 0
0.585 0.08 0
0.59 0.08 0
0.585 0.085 0
0.59 0.085 0
0.58 0.085 0
0.585 0.085 0
0.58 0.09 0
0.585 0.09 0
0.585 0.085 0
0.59 0.085 0
0.585 0.09 0
0.59 0.09 0
0.59 0.08 0
0.595 0.08 0
0.59 0.085 0
0.595 0.085 0
0.595 0.08 0
0.6 0.08 0
0.595 0.085 0
0.6 0.085 0
0.59 0.085 0
0.595 0.085 0
0.59 0.09 0
0.595 0.09 0
0.595 0.085 0
0.6 0.085 0
0.595 0.09 0
0.6 0.09 0
0.69 0.09 0
0.695 0.09 0
0.69 0.095 0
0.695 0.095 0
0.695 0.09 0
0.7 0.09 0
0.695 0.095 0
0.7 0.095 0
0.69 0.095 0
0.695 0.095 0
0.69 0.1 0
0.695 0.1 0
0.695 0.095 0
0.7 0.095 0
0.695 0.1 0
0.7 0.1 0
0.68 0.09 0
0.685 0.09 0
0.68 0.095 0
0.685 0.095 0
0.685 0.09 0
0.69 0.09 0
0.685 0.095 0
0.69 0.095 0
0.68 0.095 0
0.685 0.095 0
0.68 0.1 0
0.685 0.1 0
0.685 0.095 0
0.69 0.095 0
0.685 0.1 0
0.69 0.1 0
0.68 0.08 0
0.685 0.08 0
0.68 0.085 0
0.685 0.085 0
0.685 0.08 0
0.69 0.08 0
0.685 0.085 0
0.69 0.085 0
0.68 0.085 0
0.685 0.085 0
0.68 0.09 0
0.685 0.09 0
0.685 0.085 0
0.69 0.085 0
0.685 0.09 0
0.69 0.09 0
0.69 0.08 0
0.695 0.08 0
0.69 0.085 0
0.695 0.085 0
0.695 0.08 0
0.7 0.08 0
0.695 0.085 0
0.7 0.085 0
0.69 0.085 0
0.695 0.085 0
0.69 0.09 0
0.695 0.09 0
0.695 0.085 0
0.7 0.085 0
0.695 0.09 0
0.7 0.09 0
0.71 0.09 0
0.715 0.09 0
0.71 0.095 0
0.715 0.095 0
0.715 0.09 0
0.72 0.09 0
0.715 0.095 0
0.72 0.095 0
0.71 0.095 0
0.715 0.095 0
0.71 0.1 0
0.715 0.1 0
0.715 0.095 0
0.72 0.095 0
0.715 0.1 0
0.72 0.1 0
0.7 0.09 0
0.705 0.09 0
0.7 0.095 0
0.705 0.095 0
0.705 0.09 0
0.71 0.09 0
0.705 0.095 0
0.71 0.095 0
0.7 0.095 0
0.705 0.095 0
0.7 0.1 0
0.705 0.1 0
0.705 0.095 0
0.71 0.095 0
0.705 0.1 0
0.71 0.1 0
0.7 0.08 0
0.705 0.08 0
0.7 0.085 0
0.705 0.085 0
0.705 0.08 0
0.71 0.08 0
0.705 0.085 0
0.71 0.085 0
0.7 0.085 0
0.705 0.085 0
0.7 0.09 0
0.705 0.09 0
0.705 0.085 0
0.71 0.085 0
0.705 0.09 0
0.71 0.09 0
0.71 0.08 0
0.715 0.08 0
0.71 0.085 0
0.715 0.085 0
0.715 0.08 0
0.72 0.08 0
0.715 0.085 0
0.72 0.085 0
0.71 0.085 0
0.715 0.085 0
0.71 0.09 0
0.715 0.09 0
0.715 0.085 0
0.72 0.085 0
0.715 0.09 0
0.72 0.09 0
0.65 0.11 0
0.645 0.11 0
0.65 0.105 0
0.645 0.105 0
0.645 0.11 0
0.64 0.11 0
0.645 0.105 0
0.64 0.105 0
0.65 0.105 0
0.645 0.105 0
0.65 0.1 0
0.645 0.1 0
0.645 0.105 0
0.64 0.105 0
0.645 0.1 0
0.64 0.1 0
0.66 0.11 0
0.655 0.11 0
0.66 0.105 0
0.655 0.105 0
0.655 0.11 0
0.65 0.11 0
0.655 0.105 0
0.65 0.105 0
0.66 0.105 0
0.655 0.105 0
0.66 0.1 0
0.655 0.1 0
0.655 0.105 0
0.65 0.105 0
0.655 0.1 0
0.65 0.1 0
0.66 0.12 0
0.655 0.12 0
0.66 0.115 0
0.655 0.115 0
0.655 0.12 0
0.65 0.12 0
0.655 0.115 0
0.65 0.115 0
0.66 0.115 0
0.655 0.115 0
0.66 0.11 0
0.655 0.11 0
0.655 0.115 0
0.65 0.115 0
0.655 0.11 0
0.65 0.11 0
0.65 0.12 0
0.645 0.12 0
0.65 0.115 0
0.645 0.115 0
0.645 0.12 0
0.64 0.12 0
0.645 0.115 0
0.64 0.115 0
0.65 0.115 0
0.645 0.115 0
0.65 0.11 0
0.645 0.11 0
0.645 0.115 0
0.64 0.115 0
0.645 0.11 0
[...]
POINT_DATA 71312
SCALARS solution_0 double 1
LOOKUP_TABLE default
0.00510013 0.00437514 0.00510018 0.00437518 0.00437514 0.00360012 0.00437518 0.00360014 0.00510018 0.00437518 0.00510024 0.00437524 0.00437518 0.00360014 0.00437524 0.00360017 0.00510024 0.00437524 0.00510023 0.00437512 0.00437524 0.00360017 0.00437512 0.00360014 0.00510023 0.00437512 0.00510164 0.00437681 0.00437512 0.00360014 0.00437681 0.0036008 0.00640005 0.00577518 0.00640001 0.00577505 0.00577518 0.00510024 0.00577505 0.00510023 0.00640001 0.00577505 0.00640065 0.00577673 0.00577505 0.00510023 0.00577673 0.00510164 0.00749919 0.0074992 0.00797446 0.00797437 0.0074992 0.0074992 0.00797437 0.00797431 0.00797446 0.00797437 0.00839958 0.00839948 0.00797437 0.00797431 0.00839948 0.00839942 0.0074992 0.0074992 0.00797431 0.00797428 0.0074992 0.00749918 0.00797428 0.00797425 0.00797431 0.00797428 0.00839942 0.00839937 0.00797428 0.00797425 0.00839937 0.00839933 0.00640005 0.00640001 0.00697493 0.00697493 0.00640001 0.00640065 0.00697493 0.00697489 0.00697493 0.00697493 0.00749982 0.00749978 0.00697493 0.00697489 0.00749978 0.00749983 0.0019001 0.00190016 0.00277511 0.00277514 0.00190016 0.00190082 0.00277514 0.0027768 0.00277511 0.00277514 0.0036008 0.00359969 0.00277514 0.0027768 0.00359969 0.00360055 0.00640065 0.0063995 0.00697489 0.00697488 0.0063995 0.00640034 0.00697488 0.00697645 0.00697489 0.00697488 0.00749983 0.00749984 0.00697488 0.00697645 0.00749984 0.00750041 0.00190004 0.00190002 0.0027751 0.00277512 0.00190002 0.0019001 0.00277512 0.00277511 0.0027751 0.00277512 0.00360017 0.00360014 0.00277512 0.00277511 0.00360014 0.0036008 0.00190005 0.00189995 0.00277504 0.00277502 0.00189995 0.00189996 0.00277502 0.00277498 0.00277504 0.00277502 0.0036007 0.0036 0.00277502 0.00277498 0.0036 0.00360001 0.0019008 0.00190013 0.00277675 0.00277509 0.00190013 0.00190005 0.00277509 0.00277504 0.00277675 0.00277509 0.00360049 0.00359962 0.00277509 0.00277504 0.00359962 0.0036007 0.00510004 0.00437505 0.00509999 0.004375 0.00437505 0.00360001 0.004375 0.00359999 0.00509999 0.004375 0.00509996 0.00437497 0.004375 0.00359999 0.00437497 0.00359997 0.00639993 0.005775 0.00639991 0.00577496 0.005775 0.00510004 0.00577496 0.00509999 0.00639991 0.00577496 0.00639987 0.00577492 0.00577496 0.00509999 0.00577492 0.00509996 0.00640132 0.00577639 0.00639979 0.00577486 0.00577639 0.00510146 0.00577486 0.00509997 0.00639979 0.00577486 0.00639993 0.005775 0.00577486 0.00509997 0.005775 0.00510004 0.00510146 0.00437667 0.00509997 0.00437493 0.00437667 0.0036007 0.00437493 0.0036 0.00509997 0.00437493 0.00510004 0.00437505 0.00437493 0.0036 0.00437505 0.00360001 0.00749985 0.00749986 0.00697491 0.0069749 0.00749986 0.00750042 0.0069749 0.00697647 0.00697491 0.0069749 0.00640067 0.00639954 0.0069749 0.00697647 0.00639954 0.00640036 0.00750119 0.0074997 0.00797622 0.00797451 0.0074997 0.00749977 0.00797451 0.00797466 0.00797622 0.00797451 0.00840007 0.00839944 0.00797451 0.00797466 0.00839944 0.0083995 0.00640132 0.00639979 0.00697627 0.00697473 0.00639979 0.00639993 0.00697473 0.00697487 0.00697627 0.00697473 0.00750119 0.0074997 0.00697473 0.00697487 0.0074997 0.00749977 0.00639993 0.00639991 0.00697487 0.00697483 0.00639991 0.00639987 0.00697483 0.00697481 0.00697487 0.00697483 0.00749977 0.00749974 0.00697483 0.00697481 0.00749974 0.00749972 0.00749977 0.00749974 0.00797466 0.00797463 0.00749974 0.00749972 0.00797463 0.00797462 0.00797466 0.00797463 0.0083995 0.00839951 0.00797463 0.00797462 0.00839951 0.00839951 0.00839941 0.00839936 0.0079743 0.00797426 0.00839936 0.00839932 0.00797426 0.00797423 0.0079743 0.00797426 0.00749918 0.00749917 0.00797426 0.00797423 0.00749917 0.00749916 0.00749984 0.0074998 0.00697494 0.00697494 0.0074998 0.00749985 0.00697494 0.00697491 0.00697494 0.00697494 0.00640006 0.00640001 0.00697494 0.00697491 0.00640001 0.00640067 0.00639987 0.00639984 0.00697481 0.00697477 0.00639984 0.0063998 0.00697477 0.00697474 0.00697481 0.00697477 0.00749972 0.00749969 0.00697477 0.00697474 0.00749969 0.00749967 0.00360027 0.00360021 0.00277521 0.0027751 0.00360021 0.0036017 0.0027751 0.00277686 0.00277521 0.0027751 0.00190011 0.00190008 0.0027751 0.00277686 0.00190008 0.00190079 0.00360027 0.00437529 0.00360021 0.00437516 0.00437529 0.00510025 0.00437516 0.00510017 0.00360021 0.00437516 0.0036017 0.00437667 0.00437516 0.00510017 0.00437667 0.00510164 0.00360019 0.0043752 0.00360022 0.00437523 0.0043752 0.00510017 0.00437523 0.00510021 0.00360022 0.00437523 0.00360027 0.00437529 0.00437523 0.00510021 0.00437529 0.00510025 0.00510017 0.00577512 0.00510021 0.00577514 0.00577512 0.00640005 0.00577514 0.00640005 0.00510021 0.00577514 0.00510025 0.00577518 0.00577514 0.00640005 0.00577518 0.00640006 0.00510025 0.00577518 0.00510017 0.00577504 0.00577518 0.00640006 0.00577504 0.00640001 0.00510017 0.00577504 0.00510164 0.00577674 0.00577504 0.00640001 0.00577674 0.00640067 0.00989967 0.00989968 0.00997469 0.0099747 0.00989968 0.00989969 0.0099747 0.00997472 0.00997469 0.0099747 0.00999969 0.00999971 0.0099747 0.00997472 0.00999971 0.00999973 0.00989965 0.00989966 0.00997467 0.00997468 0.00989966 0.00989967 0.00997468 0.00997469 0.00997467 0.00997468 0.00999967 0.00999968 0.00997468 0.00997469 0.00999968 0.00999969 0.00959959 0.00959959 0.00977463 0.00977463 0.00959959 0.00959959 0.00977463 0.00977463 0.00977463 0.00977463 0.00989965 0.00989966 0.00977463 0.00977463 0.00989966 0.00989967 0.00959959 0.00959959 0.00977463 0.00977464 0.00959959 0.0095996 0.00977464 0.00977465 0.00977463 0.00977464 0.00989967 0.00989968 0.00977464 0.00977465 0.00989968 0.00989969 0.00989969 0.0098997 0.0099747 0.00997471 0.0098997 0.0098997 0.00997471 0.00997471 0.0099747 0.00997471 0.00999971 0.00999972 0.00997471 0.00997471 0.00999972 0.00999972 0.00989967 0.00989968 0.00997468 0.00997469 0.00989968 0.00989969 0.00997469 0.0099747 0.00997468 0.00997469 0.0099997 0.00999971 0.00997469 0.0099747 0.00999971 0.00999971 0.00959966 0.00959967 0.00977467 0.00977468 0.00959967 0.00959968 0.00977468 0.00977468 0.00977467 0.00977468 0.00989967 0.00989968 0.00977468 0.00977468 0.00989968 0.00989969 0.00959968 0.00959969 0.00977468 0.00977469 0.00959969 0.00959969 0.00977469 0.0097747 0.00977468 0.00977469 0.00989969 0.0098997 0.00977469 0.0097747 0.0098997 0.0098997 0.00989957 0.00989957 0.00997457 0.00997457 0.00989957 0.00989958 0.00997457 0.00997458 0.00997457 0.00997457 0.00999957 0.00999957 0.00997457 0.00997458 0.00999957 0.00999958 0.00989958 0.00989958 0.00997458 0.00997457 0.00989958 0.00989957 0.00997457 0.00997457 0.00997458 0.00997457 0.00999958 0.00999958 0.00997457 0.00997457 0.00999958 0.00999957 0.0095996 0.00959959 0.00977459 0.00977458 0.00959959 0.00959958 0.00977458 0.00977457 0.00977459 0.00977458 0.00989958 0.00989958 0.00977458 0.00977457 0.00989958 0.00989957 0.00959958 0.00959957 0.00977457 0.00977457 0.00959957 0.00959958 0.00977457 0.00977458 0.00977457 0.00977457 0.00989957 0.00989957 0.00977457 0.00977458 0.00989957 0.00989958 0.0098996 0.00989961 0.0099746 0.00997461 0.00989961 0.00989962 0.00997461 0.00997463 0.0099746 0.00997461 0.0099996 0.00999962 0.00997461 0.00997463 0.00999962 0.00999963 0.00989958 0.00989959 0.00997458 0.00997459 0.00989959 0.0098996 0.00997459 0.0099746 0.00997458 0.00997459 0.00999958 0.00999959 0.00997459 0.0099746 0.00999959 0.0099996 0.00959958 0.00959958 0.00977458 0.00977458 0.00959958 0.0095996 0.00977458 0.0097746 0.00977458 0.00977458 0.00989958 0.00989959 0.00977458 0.0097746 0.00989959 0.0098996 0.0095996 0.00959961 0.0097746 0.00977461 0.00959961 0.00959961 0.00977461 0.00977462 0.0097746 0.00977461 0.0098996 0.00989961 0.00977461 0.00977462 0.00989961 0.00989962 0.00989969 0.0098997 0.00997467 0.00997469 0.0098997 0.00989971 0.00997469 0.0099747 0.00997467 0.00997469 0.00999966 0.00999968 0.00997469 0.0099747 0.00999968 0.00999969 0.00989965 0.00989967 0.00997464 0.00997466 0.00989967 0.00989969 0.00997466 0.00997467 0.00997464 0.00997466 0.00999964 0.00999965 0.00997466 0.00997467 0.00999965 0.00999966 0.00959969 0.00959971 0.00977467 0.00977469 0.00959971 0.00959973 0.00977469 0.0097747 0.00977467 0.00977469 0.00989965 0.00989967 0.00977469 0.0097747 0.00989967 0.00989969 0.00959973 0.00959974 0.0097747 0.00977472 0.00959974 0.00959975 0.00977472 0.00977473 0.0097747 0.00977472 0.00989969 0.0098997 0.00977472 0.00977473 0.0098997 0.00989971 0.00989975 0.00989966 0.00997478 0.00997462 0.00989966 0.00990113 0.00997462 0.00997612 0.00997478 0.00997462 0.00999977 0.00999961 0.00997462 0.00997612 0.00999961 0.0100011 0.00959961 0.00959957 0.0097747 0.00977456 0.00959957 0.00960023 0.00977456 0.00977627 0.0097747 0.00977456 0.00989975 0.00989966 0.00977456 0.00977627 0.00989966 0.00990113 0.00959961 0.00977467 0.0095996 0.00977466 0.00977467 0.00989972 0.00977466 0.00989971 0.0095996 0.00977466 0.0095996 0.00977465 0.00977466 0.00989971 0.00977465 0.00989969 0.00959961 0.0097747 0.00959961 0.00977468 0.0097747 0.00989975 0.00977468 0.00989974 0.00959961 0.00977468 0.00959961 0.00977467 0.00977468 0.00989974 0.00977467 0.00989972 0.00989975 0.00997478 0.00989974 0.00997476 0.00997478 0.00999977 0.00997476 0.00999977 0.00989974 0.00997476 0.00989972 0.00997475 0.00997476 0.00999977 0.00997475 0.00999976 0.00989972 0.00997475 0.00989971 0.00997474 0.00997475 0.00999976 0.00997474 0.00999975 0.00989971 0.00997474 0.00989969 0.00997472 0.00997474 0.00999975 0.00997472 0.00999973 0.00989964 0.00989965 0.00997465 0.00997466 0.00989965 0.00989965 0.00997466 0.00997467 0.00997465 0.00997466 0.00999965 0.00999966 0.00997466 0.00997467 0.00999966 0.00999967 0.00989962 0.00989963 0.00997463 0.00997464 0.00989963 0.00989964 0.00997464 0.00997465 0.00997463 0.00997464 0.00999963 0.00999964 0.00997464 0.00997465 0.00999964 0.00999965 0.00959961 0.00959961 0.00977462 0.00977462 0.00959961 0.00959961 0.00977462 0.00977463 0.00977462 0.00977462 0.00989962 0.00989963 0.00977462 0.00977463 0.00989963 0.00989964 0.00959961 0.0095996 0.00977463 0.00977463 0.0095996 0.00959959 0.00977463 0.00977463 0.00977463 0.00977463 0.00989964 0.00989965 0.00977463 0.00977463 0.00989965 0.00989965 0.00989964 0.00997463 0.00989965 0.00997465 0.00997463 0.00999964 0.00997465 0.00999965 0.00989965 0.00997465 0.00989966 0.00997466 0.00997465 0.00999965 0.00997466 0.00999966 0.00989966 0.00997466 0.00989967 0.00997467 0.00997466 0.00999966 0.00997467 0.00999968 0.00989967 0.00997467 0.00989968 0.00997468 0.00997467 0.00999968 0.00997468 0.00999969 0.00959968 0.00977467 0.00959969 0.00977468 0.00977467 0.00989966 0.00977468 0.00989967 0.00959969 0.00977468 0.00959969 0.00977469 0.00977468 0.00989967 0.00977469 0.00989968 0.00959966 0.00977464 0.00959967 0.00977466 0.00977464 0.00989964 0.00977466 0.00989965 0.00959967 0.00977466 0.00959968 0.00977467 0.00977466 0.00989965 0.00977467 0.00989966 0.0095998 0.00977478 0.0095998 0.00977477 0.00977478 0.00989976 0.00977477 0.00989975 0.0095998 0.00977477 0.00959979 0.00977477 0.00977477 0.00989975 0.00977477 0.00989975 0.0095998 0.00977478 0.0095998 0.00977478 0.00977478 0.00989976 0.00977478 0.00989976 0.0095998 0.00977478 0.0095998 0.00977478 0.00977478 0.00989976 0.00977478 0.00989976 0.00989976 0.00997474 0.00989976 0.00997474 0.00997474 0.00999972 0.00997474 0.00999972 0.00989976 0.00997474 0.00989976 0.00997474 0.00997474 0.00999972 0.00997474 0.00999972 0.00989976 0.00997474 0.00989975 0.00997474 0.00997474 0.00999972 0.00997474 0.00999972 0.00989975 0.00997474 0.00989975 0.00997473 0.00997474 0.00999972 0.00997473 0.00999972 0.00959961 0.00977461 0.0095996 0.0097746 0.00977461 0.00989962 0.0097746 0.00989961 0.0095996 0.0097746 0.00959959 0.00977459 0.0097746 0.00989961 0.00977459 0.0098996 0.00959963 0.00977463 0.00959962 0.00977462 0.00977463 0.00989964 0.00977462 0.00989963 0.00959962 0.00977462 0.00959961 0.00977461 0.00977462 0.00989963 0.00977461 0.00989962 0.00989964 0.00997465 0.00989963 0.00997464 0.00997465 0.00999966 0.00997464 0.00999965 0.00989963 0.00997464 0.00989962 0.00997463 0.00997464 0.00999965 0.00997463 0.00999964 0.00989962 0.00997463 0.00989961 0.00997462 0.00997463 0.00999964 0.00997462 0.00999964 0.00989961 0.00997462 0.0098996 0.00997461 0.00997462 0.00999964 0.00997461 0.00999963 0.00989966 0.00989966 0.00997467 0.00997468 0.00989966 0.00989967 0.00997468 0.00997468 0.00997467 0.00997468 0.00999968 0.00999969 0.00997468 0.00997468 0.00999969 0.0099997 0.00989964 0.00989965 0.00997465 0.00997466 0.00989965 0.00989966 0.00997466 0.00997467 0.00997465 0.00997466 0.00999966 0.00999967 0.00997466 0.00997467 0.00999967 0.00999968 0.00959963 0.00959964 0.00977463 0.00977464 0.00959964 0.00959964 0.00977464 0.00977465 0.00977463 0.00977464 0.00989964 0.00989965 0.00977464 0.00977465 0.00989965 0.00989966 0.00959964 0.00959965 0.00977465 0.00977466 0.00959965 0.00959966 0.00977466 0.00977467 0.00977465 0.00977466 0.00989966 0.00989966 0.00977466 0.00977467 0.00989966 0.00989967 0.00750022 0.00797626 0.00749961 0.00797447 0.00797626 0.00840031 0.00797447 0.00839944 0.00749961 0.00797447 0.00749961 0.00797458 0.00797447 0.00839944 0.00797458 0.00839949 0.00639961 0.00697454 0.00639957 0.00697462 0.00697454 0.00750022 0.00697462 0.00749961 0.00639957 0.00697462 0.00639962 0.00697461 0.00697462 0.00749961 0.00697461 0.00749961 0.00639964 0.00697449 0.00639964 0.00697466 0.00697449 0.00749918 0.00697466 0.00749914 0.00639964 0.00697466 0.00639961 0.00697454 0.00697466 0.00749914 0.00697454 0.00750022 0.00989958 0.00989959 0.0099746 0.0099746 0.00989959 0.0098996 0.0099746 0.00997461 0.0099746 0.0099746 0.00999961 0.00999962 0.0099746 0.00997461 0.00999962 0.00999963 0.00989957 0.00989957 0.00997458 0.00997459 0.00989957 0.00989958 0.00997459 0.0099746 0.00997458 0.00997459 0.0099996 0.00999961 0.00997459 0.0099746 0.00999961 0.00999961 0.00959956 0.00959956 0.00977456 0.00977457 0.00959956 0.00959957 0.00977457 0.00977457 0.00977456 0.00977457 0.00989957 0.00989957 0.00977457 0.00977457 0.00989957 0.00989958 0.00959957 0.00959958 0.00977457 0.00977458 0.00959958 0.00959959 0.00977458 0.00977459 0.00977457 0.00977458 0.00989958 0.00989959 0.00977458 0.00977459 0.00989959 0.0098996 0.00989955 0.00989956 0.00997456 0.00997457 0.00989956 0.00989957 0.00997457 0.00997458 0.00997456 0.00997457 0.00999958 0.00999959 0.00997457 0.00997458 0.00999959 0.0099996 0.00989953 0.00989954 0.00997454 0.00997455 0.00989954 0.00989955 0.00997455 0.00997456 0.00997454 0.00997455 0.00999955 0.00999956 0.00997455 0.00997456 0.00999956 0.00999958 0.00959953 0.00959953 0.00977453 0.00977453 0.00959953 0.00959954 0.00977453 0.00977454 0.00977453 0.00977453 0.00989953 0.00989954 0.00977453 0.00977454 0.00989954 0.00989955 0.00959954 0.00959955 0.00977454 0.00977455 0.00959955 0.00959956 0.00977455 0.00977456 0.00977454 0.00977455 0.00989955 0.00989956 0.00977455 0.00977456 0.00989956 0.00989957 0.0098997 0.0098997 0.00997471 0.00997471 0.0098997 0.00989971 0.00997471 0.00997471 0.00997471 0.00997471 0.00999972 0.00999972 0.00997471 0.00997471 0.00999972 0.00999972 0.00959969 0.0095997 0.0097747 0.0097747 0.0095997 0.0095997 0.0097747 0.0097747 0.0097747 0.0097747 0.0098997 0.0098997 0.0097747 0.0097747 0.0098997 0.00989971 0.0095997 0.00959971 0.0097747 0.0097747 0.00959971 0.00959971 0.0097747 0.0097747 0.0097747 0.0097747 0.00989971 0.00989971 0.0097747 0.0097747 0.00989971 0.00989971 0.00989971 0.00989971 0.00997471 0.00997471 0.00989971 0.00989971 0.00997471 0.00997471 0.00997471 0.00997471 0.00999972 0.00999972 0.00997471 0.00997471 0.00999972 0.00999972 0.00989952 0.00989953 0.00997453 0.00997453 0.00989953 0.00989953 0.00997453 0.00997454 0.00997453 0.00997453 0.00999954 0.00999954 0.00997453 0.00997454 0.00999954 0.00999955 0.0098995 0.00989952 0.00997452 0.00997453 0.00989952 0.00989952 0.00997453 0.00997453 0.00997452 0.00997453 0.00999953 0.00999954 0.00997453 0.00997453 0.00999954 0.00999954 0.00959949 0.00959951 0.0097745 0.00977451 0.00959951 0.00959952 0.00977451 0.00977452 0.0097745 0.00977451 0.0098995 0.00989952 0.00977451 0.00977452 0.00989952 0.00989952 0.00959952 0.00959952 0.00977452 0.00977452 0.00959952 0.00959953 0.00977452 0.00977453 0.00977452 0.00977452 0.00989952 0.00989953 0.00977452 0.00977453 0.00989953 0.00989953 0.00509965 0.00577465 0.0050996 0.00577465 0.00577465 0.00639961 0.00577465 0.00639961 0.0050996 0.00577465 0.00509965 0.00577461 0.00577465 0.00639961 0.00577461 0.00640025 0.00359968 0.00437466 0.00359964 0.00437463 0.00437466 0.00509965 0.00437463 0.0050996 0.00359964 0.00437463 0.0035996 0.00437462 0.00437463 0.0050996 0.00437462 0.00509965 0.00359975 0.00437472 0.00359972 0.00437469 0.00437472 0.0050997 0.00437469 0.00509968 0.00359972 0.00437469 0.00359968 0.00437466 0.00437469 0.00509968 0.00437466 0.00509965 0.0050997 0.00577467 0.00509968 0.00577466 0.00577467 0.00639964 0.00577466 0.0063996 0.00509968 0.00577466 0.00509965 0.00577465 0.00577466 0.0063996 0.00577465 0.00639961 0.00749889 0.00797417 0.00749896 0.00797413 0.00797417 0.00839933 0.00797413 0.00839927 0.00749896 0.00797413 0.00749902 0.00797414 0.00797413 0.00839927 0.00797414 0.00839926 0.00749996 0.00797427 0.00749886 0.00797436 0.00797427 0.00839933 0.00797436 0.00839934 0.00749886 0.00797436 0.00749889 0.00797417 0.00797436 0.00839934 0.00797417 0.00839933 0.00749947 0.00797429 0.00749948 0.00797447 0.00797429 0.00839898 0.00797447 0.00839895 0.00749948 0.00797447 0.00749945 0.00797436 0.00797447 0.00839895 0.00797436 0.00840002 0.00749945 0.00797436 0.00749941 0.00797443 0.00797436 0.00840002 0.00797443 0.00839941 0.00749941 0.00797443 0.00749945 0.00797443 0.00797443 0.00839941 0.00797443 0.00839941 0.00639962 0.00697452 0.0063996 0.0069745 0.00697452 0.00749945 0.0069745 0.00749941 0.0063996 0.0069745 0.00639958 0.00697449 0.0069745 0.00749941 0.00697449 0.00749945 0.00639962 0.00697454 0.00639963 0.00697455 0.00697454 0.00749947 0.00697455 0.00749948 0.00639963 0.00697455 0.00639962 0.00697452 0.00697455 0.00749948 0.00697452 0.00749945 0.00989961 0.00989959 0.0099746 0.00997459 0.00989959 0.00989958 0.00997459 0.00997458 0.0099746 0.00997459 0.00999961 0.00999959 0.00997459 0.00997458 0.00999959 0.00999958 0.00989964 0.00989962 0.00997463 0.00997462 0.00989962 0.00989961 0.00997462 0.0099746 0.00997463 0.00997462 0.00999964 0.00999962 0.00997462 0.0099746 0.00999962 0.00999961 0.00959966 0.00959964 0.00977464 0.00977463 0.00959964 0.00959963 0.00977463 0.00977462 0.00977464 0.00977463 0.00989964 0.00989962 0.00977463 0.00977462 0.00989962 0.00989961 0.00959963 0.00959961 0.00977462 0.0097746 0.00959961 0.0095996 0.0097746 0.00977459 0.00977462 0.0097746 0.00989961 0.00989959 0.0097746 0.00977459 0.00989959 0.00989958 0.0074998 0.00749981 0.00797478 0.00797479 0.00749981 0.00749982 0.00797479 0.00797479 0.00797478 0.00797479 0.00839976 0.00839977 0.00797479 0.00797479 0.00839977 0.00839977 0.00749979 0.0074998 0.00797477 0.00797478 0.0074998 0.0074998 0.00797478 0.00797478 0.00797477 0.00797478 0.00839975 0.00839976 0.00797478 0.00797478 0.00839976 0.00839976 0.00639983 0.00639984 0.00697481 0.00697482 0.00639984 0.00639985 0.00697482 0.00697483 0.00697481 0.00697482 0.00749979 0.0074998 0.00697482 0.00697483 0.0074998 0.0074998 0.00639985 0.00639986 0.00697483 0.00697484 0.00639986 0.00639988 0.00697484 0.00697485 0.00697483 0.00697484 0.0074998 0.00749981 0.00697484 0.00697485 0.00749981 0.00749982 0.00189952 0.00277449 0.00189962 0.00277456 0.00277449 0.00359954 0.00277456 0.00359953 0.00189962 0.00277456 0.0018997 0.00277462 0.00277456 0.00359953 0.00277462 0.0035996 0 0.000974695 0 0.000974777 0.000974695 0.00189952 0.000974777 0.00189962 0 0.000974777 0 0.000974828 0.000974777 0.00189962 0.000974828 0.0018997 0 0.000974361 0 0.000974573 0.000974361 0.00189916 0.000974573 0.00189934 0 0.000974573 0 0.000974695 0.000974573 0.00189934 0.000974695 0.00189952 0.00189916 0.00277424 0.00189934 0.0027744 0.00277424 0.0036001 0.0027744 0.00359951 0.00189934 0.0027744 0.00189952 0.00277449 0.0027744 0.00359951 0