# vtk DataFile Version 3.0
#This file was generated by the deal.II library on 2020/11/19 at 17:12:51
ASCII
DATASET UNSTRUCTURED_GRID

POINTS 17960 double
0.75 0.09 0
0.76 0.09 0
0.75 0.1 0
0.76 0.1 0
0.74 0.09 0
0.75 0.09 0
0.74 0.1 0
0.75 0.1 0
0.74 0.08 0
0.75 0.08 0
0.74 0.09 0
0.75 0.09 0
0.75 0.08 0
0.76 0.08 0
0.75 0.09 0
0.76 0.09 0
0.59 0.09 0
0.6 0.09 0
0.59 0.1 0
0.6 0.1 0
0.58 0.09 0
0.59 0.09 0
0.58 0.1 0
0.59 0.1 0
0.58 0.08 0
0.59 0.08 0
0.58 0.09 0
0.59 0.09 0
0.59 0.08 0
0.6 0.08 0
0.59 0.09 0
0.6 0.09 0
0.69 0.09 0
0.7 0.09 0
0.69 0.1 0
0.7 0.1 0
0.68 0.09 0
0.69 0.09 0
0.68 0.1 0
0.69 0.1 0
0.68 0.08 0
0.69 0.08 0
0.68 0.09 0
0.69 0.09 0
0.69 0.08 0
0.7 0.08 0
0.69 0.09 0
0.7 0.09 0
0.71 0.09 0
0.72 0.09 0
0.71 0.1 0
0.72 0.1 0
0.7 0.09 0
0.71 0.09 0
0.7 0.1 0
0.71 0.1 0
0.7 0.08 0
0.71 0.08 0
0.7 0.09 0
0.71 0.09 0
0.71 0.08 0
0.72 0.08 0
0.71 0.09 0
0.72 0.09 0
0.65 0.11 0
0.64 0.11 0
0.65 0.1 0
0.64 0.1 0
0.66 0.11 0
0.65 0.11 0
0.66 0.1 0
0.65 0.1 0
0.66 0.12 0
0.65 0.12 0
0.66 0.11 0
0.65 0.11 0
0.65 0.12 0
0.64 0.12 0
0.65 0.11 0
0.64 0.11 0
0.78 0.09 0
0.79 0.09 0
0.78 0.1 0
0.79 0.1 0
0.78 0.08 0
0.79 0.08 0
0.78 0.09 0
0.79 0.09 0
0.77 0.08 0
0.77 0.09 0
0.76 0.08 0
0.76 0.09 0
0.78 0.08 0
0.78 0.09 0
0.77 0.08 0
0.77 0.09 0
0.78 0.09 0
0.78 0.1 0
0.77 0.09 0
0.77 0.1 0
0.77 0.09 0
0.77 0.1 0
0.76 0.09 0
0.76 0.1 0
0.73 0.09 0
0.74 0.09 0
0.73 0.1 0
0.74 0.1 0
0.72 0.09 0
0.73 0.09 0
0.72 0.1 0
0.73 0.1 0
0.72 0.08 0
0.73 0.08 0
0.72 0.09 0
0.73 0.09 0
0.73 0.08 0
0.74 0.08 0
0.73 0.09 0
0.74 0.09 0
0.66 0.09 0
0.66 0.1 0
0.65 0.09 0
0.65 0.1 0
0.65 0.09 0
0.65 0.1 0
0.64 0.09 0
0.64 0.1 0
0.65 0.08 0
0.65 0.09 0
0.64 0.08 0
0.64 0.09 0
0.66 0.08 0
0.66 0.09 0
0.65 0.08 0
0.65 0.09 0
0.61 0.12 0
0.61 0.11 0
0.62 0.12 0
0.62 0.11 0
0.6 0.12 0
0.6 0.11 0
0.61 0.12 0
0.61 0.11 0
0.6 0.11 0
0.6 0.1 0
0.61 0.11 0
0.61 0.1 0
0.61 0.11 0
0.61 0.1 0
0.62 0.11 0
0.62 0.1 0
0.55 0.08 0
0.55 0.09 0
0.54 0.08 0
0.54 0.09 0
0.56 0.08 0
0.56 0.09 0
0.55 0.08 0
0.55 0.09 0
0.56 0.09 0
0.56 0.1 0
0.55 0.09 0
0.55 0.1 0
0.55 0.09 0
0.55 0.1 0
0.54 0.09 0
0.54 0.1 0
0.57 0.09 0
0.58 0.09 0
0.57 0.1 0
0.58 0.1 0
0.56 0.09 0
0.57 0.09 0
0.56 0.1 0
0.57 0.1 0
0.56 0.08 0
0.57 0.08 0
0.56 0.09 0
0.57 0.09 0
0.57 0.08 0
0.58 0.08 0
0.57 0.09 0
0.58 0.09 0
0.93 0.05 0
0.93 0.06 0
0.92 0.05 0
0.92 0.06 0
0.93 0.04 0
0.93 0.05 0
0.92 0.04 0
0.92 0.05 0
0.94 0.04 0
0.94 0.05 0
0.93 0.04 0
0.93 0.05 0
0.94 0.05 0
0.94 0.06 0
0.93 0.05 0
0.93 0.06 0
0.53 0.09 0
0.54 0.09 0
0.53 0.1 0
0.54 0.1 0
0.52 0.09 0
0.53 0.09 0
0.52 0.1 0
0.53 0.1 0
0.52 0.08 0
0.53 0.08 0
0.52 0.09 0
0.53 0.09 0
0.53 0.08 0
0.54 0.08 0
0.53 0.09 0
0.54 0.09 0
0.51 0.09 0
0.52 0.09 0
0.51 0.1 0
0.52 0.1 0
0.5 0.09 0
0.51 0.09 0
0.5 0.1 0
0.51 0.1 0
0.5 0.08 0
0.51 0.08 0
0.5 0.09 0
0.51 0.09 0
0.51 0.08 0
0.52 0.08 0
0.51 0.09 0
0.52 0.09 0
0.6 0.09 0
0.61 0.09 0
0.6 0.1 0
0.61 0.1 0
0.6 0.08 0
0.61 0.08 0
0.6 0.09 0
0.61 0.09 0
0.61 0.08 0
0.62 0.08 0
0.61 0.09 0
0.62 0.09 0
0.61 0.09 0
0.62 0.09 0
0.61 0.1 0
0.62 0.1 0
0.03 0.04 0
0.03 0.05 0
0.02 0.04 0
0.02 0.05 0
0.04 0.04 0
0.04 0.05 0
0.03 0.04 0
0.03 0.05 0
0.04 0.05 0
0.04 0.06 0
0.03 0.05 0
0.03 0.06 0
0.03 0.05 0
0.03 0.06 0
0.02 0.05 0
0.02 0.06 0
0.05 0.04 0
0.05 0.05 0
0.04 0.04 0
0.04 0.05 0
0.06 0.04 0
0.06 0.05 0
0.05 0.04 0
0.05 0.05 0
0.06 0.05 0
0.06 0.06 0
0.05 0.05 0
0.05 0.06 0
0.05 0.05 0
0.05 0.06 0
0.04 0.05 0
0.04 0.06 0
0.49 0.09 0
0.5 0.09 0
0.49 0.1 0
0.5 0.1 0
0.48 0.09 0
0.49 0.09 0
0.48 0.1 0
0.49 0.1 0
0.48 0.08 0
0.49 0.08 0
0.48 0.09 0
0.49 0.09 0
0.49 0.08 0
0.5 0.08 0
0.49 0.09 0
0.5 0.09 0
0.47 0.19 0
0.48 0.19 0
0.47 0.2 0
0.48 0.2 0
0.46 0.19 0
0.47 0.19 0
0.46 0.2 0
0.47 0.2 0
0.95 0.17 0
0.95 0.16 0
0.96 0.17 0
0.96 0.16 0
0.95 0.18 0
0.95 0.17 0
0.96 0.18 0
0.96 0.17 0
0.94 0.18 0
0.94 0.17 0
0.95 0.18 0
0.95 0.17 0
0.94 0.17 0
0.94 0.16 0
0.95 0.17 0
0.95 0.16 0
0.77 0.05 0
0.77 0.06 0
0.76 0.05 0
0.76 0.06 0
0.78 0.05 0
0.78 0.06 0
0.77 0.05 0
0.77 0.06 0
0.86 0.05 0
0.86 0.06 0
0.85 0.05 0
0.85 0.06 0
0.85 0.05 0
0.85 0.06 0
0.84 0.05 0
0.84 0.06 0
0.85 0.04 0
0.85 0.05 0
0.84 0.04 0
0.84 0.05 0
0.86 0.04 0
0.86 0.05 0
0.85 0.04 0
0.85 0.05 0
0.67 0.09 0
0.68 0.09 0
0.67 0.1 0
0.68 0.1 0
0.66 0.09 0
0.67 0.09 0
0.66 0.1 0
0.67 0.1 0
0.66 0.08 0
0.67 0.08 0
0.66 0.09 0
0.67 0.09 0
0.67 0.08 0
0.68 0.08 0
0.67 0.09 0
0.68 0.09 0
0.63 0.05 0
0.64 0.05 0
0.63 0.06 0
0.64 0.06 0
0.62 0.05 0
0.63 0.05 0
0.62 0.06 0
0.63 0.06 0
0.62 0.04 0
0.63 0.04 0
0.62 0.05 0
0.63 0.05 0
0.63 0.04 0
0.64 0.04 0
0.63 0.05 0
0.64 0.05 0
0.97 0.01 0
0.97 0.02 0
0.96 0.01 0
0.96 0.02 0
0.97 0 0
0.97 0.01 0
0.96 0 0
0.96 0.01 0
0.98 0 0
0.98 0.01 0
0.97 0 0
0.97 0.01 0
0.98 0.01 0
0.98 0.02 0
0.97 0.01 0
0.97 0.02 0
0.94 0.04 0
0.93 0.04 0
0.94 0.03 0
0.93 0.03 0
0.93 0.04 0
0.92 0.04 0
0.93 0.03 0
0.92 0.03 0
0.93 0.03 0
0.92 0.03 0
0.93 0.02 0
0.92 0.02 0
0.94 0.03 0
0.93 0.03 0
0.94 0.02 0
0.93 0.02 0
0.08 0.11 0
0.08 0.1 0
0.09 0.11 0
0.09 0.1 0
0.09 0.11 0
0.09 0.1 0
0.1 0.11 0
0.1 0.1 0
0.88 0.19 0
0.89 0.19 0
0.88 0.2 0
0.89 0.2 0
0.88 0.18 0
0.89 0.18 0
0.88 0.19 0
0.89 0.19 0
0.89 0.18 0
0.9 0.18 0
0.89 0.19 0
0.9 0.19 0
0.89 0.19 0
0.9 0.19 0
0.89 0.2 0
0.9 0.2 0
0.97 0.03 0
0.96 0.03 0
0.97 0.02 0
0.96 0.02 0
0.98 0.03 0
0.97 0.03 0
0.98 0.02 0
0.97 0.02 0
0.98 0.04 0
0.97 0.04 0
0.98 0.03 0
0.97 0.03 0
0.97 0.04 0
0.96 0.04 0
0.97 0.03 0
0.96 0.03 0
0.55 0.07 0
0.54 0.07 0
0.55 0.06 0
0.54 0.06 0
0.56 0.07 0
0.55 0.07 0
0.56 0.06 0
0.55 0.06 0
0.56 0.08 0
0.55 0.08 0
0.56 0.07 0
0.55 0.07 0
0.55 0.08 0
0.54 0.08 0
0.55 0.07 0
0.54 0.07 0
0.65 0.04 0
0.64 0.04 0
0.65 0.03 0
0.64 0.03 0
0.65 0.03 0
0.64 0.03 0
0.65 0.02 0
0.64 0.02 0
0.62 0.11 0
0.62 0.1 0
0.63 0.11 0
0.63 0.1 0
0.63 0.11 0
0.63 0.1 0
0.64 0.11 0
0.64 0.1 0
0.63 0.12 0
0.63 0.11 0
0.64 0.12 0
0.64 0.11 0
0.62 0.12 0
0.62 0.11 0
0.63 0.12 0
0.63 0.11 0
0.87 0.04 0
0.87 0.03 0
0.88 0.04 0
0.88 0.03 0
0.86 0.04 0
0.86 0.03 0
0.87 0.04 0
0.87 0.03 0
0.86 0.03 0
0.86 0.02 0
0.87 0.03 0
0.87 0.02 0
0.87 0.03 0
0.87 0.02 0
0.88 0.03 0
0.88 0.02 0
0.88 0.18 0
0.88 0.17 0
0.89 0.18 0
0.89 0.17 0
0.88 0.17 0
0.88 0.16 0
0.89 0.17 0
0.89 0.16 0
0.89 0.17 0
0.89 0.16 0
0.9 0.17 0
0.9 0.16 0
0.89 0.18 0
0.89 0.17 0
0.9 0.18 0
0.9 0.17 0
0.91 0.14 0
0.92 0.14 0
0.91 0.15 0
0.92 0.15 0
0.91 0.15 0
0.92 0.15 0
0.91 0.16 0
0.92 0.16 0
0.9 0.15 0
0.91 0.15 0
0.9 0.16 0
0.91 0.16 0
0.9 0.14 0
0.91 0.14 0
0.9 0.15 0
0.91 0.15 0
0.5 0 0
0.51 0 0
0.5 0.01 0
0.51 0.01 0
0.51 0 0
0.52 0 0
0.51 0.01 0
0.52 0.01 0
0.51 0.01 0
0.52 0.01 0
0.51 0.02 0
0.52 0.02 0
0.5 0.01 0
0.51 0.01 0
0.5 0.02 0
0.51 0.02 0
0.91 0.18 0
0.92 0.18 0
0.91 0.19 0
0.92 0.19 0
0.91 0.19 0
0.92 0.19 0
0.91 0.2 0
0.92 0.2 0
0.9 0.19 0
0.91 0.19 0
0.9 0.2 0
0.91 0.2 0
0.9 0.18 0
0.91 0.18 0
0.9 0.19 0
0.91 0.19 0
0.04 0.08 0
0.04 0.09 0
0.03 0.08 0
0.03 0.09 0
0.04 0.09 0
0.04 0.1 0
0.03 0.09 0
0.03 0.1 0
0.03 0.09 0
0.03 0.1 0
0.02 0.09 0
0.02 0.1 0
0.03 0.08 0
0.03 0.09 0
0.02 0.08 0
0.02 0.09 0
0.59 0.12 0
0.59 0.11 0
0.6 0.12 0
0.6 0.11 0
0.58 0.12 0
0.58 0.11 0
0.59 0.12 0
0.59 0.11 0
0.58 0.11 0
0.58 0.1 0
0.59 0.11 0
0.59 0.1 0
0.59 0.11 0
0.59 0.1 0
0.6 0.11 0
0.6 0.1 0
0.08 0.05 0
0.08 0.06 0
0.07 0.05 0
0.07 0.06 0
0.07 0.05 0
0.07 0.06 0
0.06 0.05 0
0.06 0.06 0
0.07 0.04 0
0.07 0.05 0
0.06 0.04 0
0.06 0.05 0
0.08 0.04 0
0.08 0.05 0
0.07 0.04 0
0.07 0.05 0
0.99 0 0
0.99 0.01 0
0.98 0 0
0.98 0.01 0
1 0 0
1 0.01 0
0.99 0 0
0.99 0.01 0
1 0.01 0
1 0.02 0
0.99 0.01 0
0.99 0.02 0
0.99 0.01 0
0.99 0.02 0
0.98 0.01 0
0.98 0.02 0
0.27 0.08 0
0.27 0.09 0
0.26 0.08 0
0.26 0.09 0
0.28 0.08 0
0.28 0.09 0
0.27 0.08 0
0.27 0.09 0
0.28 0.09 0
0.28 0.1 0
0.27 0.09 0
0.27 0.1 0
0.27 0.09 0
0.27 0.1 0
0.26 0.09 0
0.26 0.1 0
0.9 0.18 0
0.9 0.17 0
0.91 0.18 0
0.91 0.17 0
0.9 0.17 0
0.9 0.16 0
0.91 0.17 0
0.91 0.16 0
0.91 0.17 0
0.91 0.16 0
0.92 0.17 0
0.92 0.16 0
0.91 0.18 0
0.91 0.17 0
0.92 0.18 0
0.92 0.17 0
0.22 0.08 0
0.23 0.08 0
0.22 0.09 0
0.23 0.09 0
0.23 0.08 0
0.24 0.08 0
0.23 0.09 0
0.24 0.09 0
0.23 0.09 0
0.24 0.09 0
0.23 0.1 0
0.24 0.1 0
0.22 0.09 0
0.23 0.09 0
0.22 0.1 0
0.23 0.1 0
0.67 0.08 0
0.67 0.07 0
0.68 0.08 0
0.68 0.07 0
0.66 0.08 0
0.66 0.07 0
0.67 0.08 0
0.67 0.07 0
0.66 0.07 0
0.66 0.06 0
0.67 0.07 0
0.67 0.06 0
0.67 0.07 0
0.67 0.06 0
0.68 0.07 0
0.68 0.06 0
0.71 0.08 0
0.71 0.07 0
0.72 0.08 0
0.72 0.07 0
0.7 0.08 0
0.7 0.07 0
0.71 0.08 0
0.71 0.07 0
0.7 0.07 0
0.7 0.06 0
0.71 0.07 0
0.71 0.06 0
0.71 0.07 0
0.71 0.06 0
0.72 0.07 0
0.72 0.06 0
0.75 0.08 0
0.75 0.07 0
0.76 0.08 0
0.76 0.07 0
0.74 0.08 0
0.74 0.07 0
0.75 0.08 0
0.75 0.07 0
0.74 0.07 0
0.74 0.06 0
0.75 0.07 0
0.75 0.06 0
0.75 0.07 0
0.75 0.06 0
0.76 0.07 0
0.76 0.06 0
0.71 0.12 0
0.71 0.11 0
0.72 0.12 0
0.72 0.11 0
0.7 0.12 0
0.7 0.11 0
0.71 0.12 0
0.71 0.11 0
0.7 0.11 0
0.7 0.1 0
0.71 0.11 0
0.71 0.1 0
0.71 0.11 0
0.71 0.1 0
0.72 0.11 0
0.72 0.1 0
0.58 0.03 0
0.58 0.02 0
0.59 0.03 0
0.59 0.02 0
0.59 0.03 0
0.59 0.02 0
0.6 0.03 0
0.6 0.02 0
0.59 0.04 0
0.59 0.03 0
0.6 0.04 0
0.6 0.03 0
0.58 0.04 0
0.58 0.03 0
0.59 0.04 0
0.59 0.03 0
0.61 0.08 0
0.61 0.07 0
0.62 0.08 0
0.62 0.07 0
0.6 0.08 0
0.6 0.07 0
0.61 0.08 0
0.61 0.07 0
0.6 0.07 0
0.6 0.06 0
0.61 0.07 0
0.61 0.06 0
0.61 0.07 0
0.61 0.06 0
0.62 0.07 0
0.62 0.06 0
0.57 0.04 0
0.57 0.03 0
0.58 0.04 0
0.58 0.03 0
0.56 0.04 0
0.56 0.03 0
0.57 0.04 0
0.57 0.03 0
0.56 0.03 0
0.56 0.02 0
0.57 0.03 0
0.57 0.02 0
0.57 0.03 0
0.57 0.02 0
0.58 0.03 0
0.58 0.02 0
0.13 0.09 0
0.14 0.09 0
0.13 0.1 0
0.14 0.1 0
0.12 0.09 0
0.13 0.09 0
0.12 0.1 0
0.13 0.1 0
0.12 0.08 0
0.13 0.08 0
0.12 0.09 0
0.13 0.09 0
0.13 0.08 0
0.14 0.08 0
0.13 0.09 0
0.14 0.09 0
0.85 0.18 0
0.84 0.18 0
0.85 0.17 0
0.84 0.17 0
0.85 0.17 0
0.84 0.17 0
0.85 0.16 0
0.84 0.16 0
0.86 0.17 0
0.85 0.17 0
0.86 0.16 0
0.85 0.16 0
0.86 0.18 0
0.85 0.18 0
0.86 0.17 0
0.85 0.17 0
0.8 0.08 0
0.8 0.07 0
0.81 0.08 0
0.81 0.07 0
0.8 0.07 0
0.8 0.06 0
0.81 0.07 0
0.81 0.06 0
0.81 0.07 0
0.81 0.06 0
0.82 0.07 0
0.82 0.06 0
0.48 0.19 0
0.49 0.19 0
0.48 0.2 0
0.49 0.2 0
[...]
POINT_DATA 17960
SCALARS solution_0 double 1
LOOKUP_TABLE default
0.00989644 0.0098966 0.0099965 0.00999672 0.00989621 0.00989644 0.00999629 0.0099965 0.00959603 0.00959628 0.00989621 0.00989644 0.00959628 0.00959646 0.00989644 0.0098966 0.00989623 0.00989619 0.00999636 0.00999626 0.00989633 0.00989623 0.00999636 0.00999636 0.00959639 0.00959633 0.00989633 0.00989623 0.00959633 0.00959629 0.00989623 0.00989619 0.00989601 0.00989586 0.00999609 0.00999597 0.00989615 0.00989601 0.00999618 0.00999609 0.00959615 0.00959582 0.00989615 0.00989601 0.00959582 0.00959565 0.00989601 0.00989586 0.00989579 0.00989583 0.0099959 0.00999594 0.00989586 0.00989579 0.00999597 0.0099959 0.00959565 0.00959558 0.00989586 0.00989579 0.00959558 0.00959559 0.00989579 0.00989583 0.0098963 0.00989631 0.00999608 0.00999606 0.0098963 0.0098963 0.00999614 0.00999608 0.00959651 0.00959674 0.0098963 0.0098963 0.00959674 0.0095967 0.0098963 0.00989631 0.00989648 0.00990336 0.00999705 0.0100029 0.00959657 0.00959926 0.00989648 0.00990336 0.00959654 0.0098969 0.00959646 0.0098966 0.00959657 0.00989648 0.00959654 0.0098969 0.00989648 0.00999705 0.0098969 0.009997 0.0098969 0.009997 0.0098966 0.00999672 0.00989599 0.00989621 0.00999608 0.00999629 0.00989583 0.00989599 0.00999594 0.00999608 0.00959559 0.00959571 0.00989583 0.00989599 0.00959571 0.00959603 0.00989599 0.00989621 0.0098961 0.00999614 0.009896 0.00999608 0.009896 0.00999608 0.00989596 0.00999606 0.00959601 0.009896 0.0095961 0.00989596 0.00959624 0.0098961 0.00959601 0.009896 0.00959689 0.00989646 0.00959674 0.00989635 0.00959709 0.00989658 0.00959689 0.00989646 0.00989658 0.00999626 0.00989646 0.00999619 0.00989646 0.00999619 0.00989635 0.00999612 0.0095964 0.0098963 0.0095963 0.00989625 0.00959646 0.00989654 0.0095964 0.0098963 0.00989654 0.00999671 0.0098963 0.00999666 0.0098963 0.00999666 0.00989625 0.00999591 0.00989645 0.00989633 0.00999665 0.00999636 0.00989654 0.00989645 0.00999671 0.00999665 0.00959646 0.00959646 0.00989654 0.00989645 0.00959646 0.00959639 0.00989645 0.00989633 0.00749638 0.00839562 0.00749646 0.00839603 0.00639698 0.00749638 0.00639696 0.00749646 0.00639651 0.00749936 0.00639698 0.00749638 0.00749936 0.00840031 0.00749638 0.00839562 0.00989612 0.00989625 0.0099962 0.00999591 0.00989605 0.00989612 0.00999528 0.0099962 0.0095959 0.00959622 0.00989605 0.00989612 0.00959622 0.0095963 0.00989612 0.00989625 0.00989532 0.00989605 0.0099979 0.00999528 0.0098956 0.00989532 0.00999338 0.0099979 0.00959569 0.00959582 0.0098956 0.00989532 0.00959582 0.0095959 0.00989532 0.00989605 0.00989619 0.00989613 0.00999626 0.00999619 0.00959629 0.00959625 0.00989619 0.00989613 0.00959625 0.00959621 0.00989613 0.00989607 0.00989613 0.00989607 0.00999619 0.00999612 0.00639469 0.00749642 0.00639886 0.00749816 0.0063998 0.00749627 0.00639469 0.00749642 0.00749627 0.00839595 0.00749642 0.00839605 0.00749642 0.00839605 0.00749816 0.00839542 0.0063973 0.00749666 0.0063998 0.00749627 0.00639755 0.00749674 0.0063973 0.00749666 0.00749674 0.00839613 0.00749666 0.00839589 0.00749666 0.00839589 0.00749627 0.00839595 0.00989485 0.0098956 0.00999391 0.00999338 0.00989474 0.00989485 0.00999424 0.00999391 0.00959527 0.00959553 0.00989474 0.00989485 0.00959553 0.00959569 0.00989485 0.0098956 0.001899 0.001899 0 0 0.00189901 0.001899 0 0 0.00509676 0.00639675 0.00509601 0.00639911 0.00359678 0.00509676 0.00359607 0.00509601 0.00359742 0.00509691 0.00359678 0.00509676 0.00509691 0.00639651 0.00509676 0.00639675 0.00749412 0.00839657 0.00749914 0.00839862 0.0074993 0.00839639 0.00749412 0.00839657 0.00749699 0.00839633 0.00749703 0.00839622 0.00749703 0.00839622 0.00749718 0.00839616 0.00639783 0.00749703 0.00639804 0.00749718 0.00639758 0.00749699 0.00639783 0.00749703 0.0098962 0.00989615 0.0099962 0.00999618 0.0098961 0.0098962 0.00999614 0.0099962 0.00959624 0.00959628 0.0098961 0.0098962 0.00959628 0.00959615 0.0098962 0.00989615 0.00749779 0.00749777 0.00839708 0.00839716 0.00749762 0.00749779 0.00839705 0.00839708 0.00639818 0.00639849 0.00749762 0.00749779 0.00639849 0.00639829 0.00749779 0.00749777 0.00189546 0.00359504 0.00189718 0.00359607 0 0.00189546 0 0.00189718 0 0.00189269 0 0.00189546 0.00189269 0.0035932 0.00189546 0.00359504 0.00639651 0.00639698 0.00509692 0.00509708 0.00639698 0.00639696 0.00509708 0.00509747 0.00509708 0.00509747 0.00359779 0.0035981 0.00509692 0.00509708 0.00359742 0.00359779 0.00989351 0.00999557 0.00989413 0.00999492 0.00989413 0.00999492 0.00989453 0.00999493 0.0018994 0.00189933 0 0 0.00359878 0.00359868 0.0018994 0.00189933 0.00359868 0.00359855 0.00189933 0.00189926 0.00189933 0.00189926 0 0 0.00509615 0.00509601 0.00359504 0.00359607 0.00509857 0.00509615 0.0035932 0.00359504 0.00640082 0.0063944 0.00509857 0.00509615 0.0063944 0.00639911 0.00509615 0.00509601 0.00909654 0.00909647 0.00839679 0.00839673 0.00909659 0.00909654 0.00839683 0.00839679 0.00959646 0.0095964 0.00909659 0.00909654 0.0095964 0.0095963 0.00909654 0.00909647 0.00640513 0.00639829 0.00510543 0.00509878 0.00510543 0.00509878 0.00360178 0.00359905 0.00989635 0.00999612 0.0098963 0.00999607 0.0098963 0.00999607 0.00989631 0.00999606 0.00959668 0.0098963 0.0095967 0.00989631 0.00959674 0.00989635 0.00959668 0.0098963 0.00639747 0.00509825 0.00639747 0.00509813 0.00639758 0.00509864 0.00639747 0.00509825 0.00509864 0.0035989 0.00509825 0.00359897 0.00509825 0.00359897 0.00509813 0.00359879 0.00359878 0.00509812 0.00359868 0.00509805 0.00509812 0.00639747 0.00509805 0.00639744 0.00509805 0.00639744 0.00509791 0.00639732 0.00359868 0.00509805 0.00359855 0.00509791 0.00839562 0.00839603 0.00749637 0.00749645 0.00749637 0.00749645 0.00639708 0.00639696 0.00749642 0.00749637 0.00639732 0.00639708 0.00839526 0.00839562 0.00749642 0.00749637 0 0 0.00189924 0.00189925 0 0 0.00189925 0.00189926 0.00189925 0.00189926 0.00359856 0.00359858 0.00189924 0.00189925 0.00359853 0.00359856 0.00359837 0.0035981 0.00189914 0.00189897 0.00189914 0.00189897 0 0 0.00189926 0.00189914 0 0 0.00359855 0.00359837 0.00189926 0.00189914 0.0095955 0.00989558 0.0095955 0.00989558 0.00989558 0.00999585 0.00989558 0.00999572 0.00989558 0.00999572 0.00989566 0.00999594 0.0095955 0.00989558 0.00959555 0.00989566 0.00959734 0.0098966 0.00959709 0.00989658 0.00959702 0.00989699 0.00959734 0.0098966 0.00989699 0.00999636 0.0098966 0.00999636 0.0098966 0.00999636 0.00989658 0.00999626 0.00749685 0.00839632 0.00749683 0.00839625 0.00749683 0.00839625 0.00749674 0.00839613 0.00639751 0.00749683 0.00639755 0.00749674 0.00639747 0.00749685 0.00639751 0.00749683 0 0.00188616 0 0.00189269 0 0.0019 0 0.00188616 0.0019 0.0036 0.00188616 0.0035959 0.00188616 0.0035959 0.00189269 0.0035932 0.00959505 0.0098949 0.00959505 0.00989489 0.00959505 0.0098949 0.00959505 0.0098949 0.0098949 0.00999484 0.0098949 0.00999484 0.0098949 0.00999484 0.00989489 0.00999484 0.00359855 0.00509791 0.00359837 0.00509771 0.00509791 0.00639732 0.00509771 0.00639708 0.00509771 0.00639708 0.00509747 0.00639696 0.00359837 0.00509771 0.0035981 0.00509747 0.00959505 0.00959505 0.00989486 0.00989488 0.00959505 0.00959505 0.00989488 0.00989488 0.00989488 0.00989488 0.00999481 0.00999482 0.00989486 0.00989488 0.00999479 0.00999481 0.00959628 0.0090967 0.00959615 0.00909573 0.00959624 0.00909634 0.00959628 0.0090967 0.00909634 0.00839998 0.0090967 0.00839466 0.0090967 0.00839466 0.00909573 0.0083949 0.00959558 0.00909532 0.00959559 0.00909528 0.00959565 0.00909538 0.00959558 0.00909532 0.00909538 0.00839517 0.00909532 0.00839515 0.00909532 0.00839515 0.00909528 0.00839506 0.00959628 0.00909625 0.00959646 0.00909612 0.00959603 0.00909544 0.00959628 0.00909625 0.00909544 0.00839455 0.00909625 0.00839403 0.00909625 0.00839403 0.00909612 0.00839862 0.00959573 0.00989588 0.00959573 0.0098959 0.00959585 0.00989598 0.00959573 0.00989588 0.00989598 0.00999597 0.00989588 0.0099959 0.00989588 0.0099959 0.0098959 0.00999594 0.0050982 0.00359875 0.00509827 0.00359881 0.00509827 0.00359881 0.00509837 0.00359889 0.00639777 0.00509827 0.00639787 0.00509837 0.0063977 0.0050982 0.00639777 0.00509827 0.00959625 0.00909655 0.00959621 0.00909654 0.00959629 0.00909655 0.00959625 0.00909655 0.00909655 0.00839693 0.00909655 0.00839698 0.00909655 0.00839698 0.00909654 0.00839705 0.00639765 0.00509814 0.0063977 0.0050982 0.0063976 0.0050981 0.00639765 0.00509814 0.0050981 0.00359867 0.00509814 0.0035987 0.00509814 0.0035987 0.0050982 0.00359875 0.00989497 0.0098954 0.00999783 0.00999339 0.00989539 0.00989497 0.00999501 0.00999783 0.00959529 0.00959536 0.00989539 0.00989497 0.00959536 0.00959538 0.00989497 0.0098954 0.00360216 0.00359767 0.00509834 0.00509898 0.00509834 0.00509898 0.00639783 0.00639805 0.00509864 0.00509834 0.00639758 0.00639783 0.00359889 0.00360216 0.00509864 0.00509834 0.00959444 0.00909694 0.00959893 0.00909897 0.00909694 0.00839727 0.00909897 0.00839672 0.00909897 0.00839672 0.00909427 0.00839702 0.001899 0.00189898 0 0 0.00189898 0.00189896 0 0 0.00359896 0.00359878 0.00189956 0.0018994 0.00189956 0.0018994 0 0 0.00189941 0.00189956 0 0 0.00359889 0.00359896 0.00189941 0.00189956 0.00640513 0.00749976 0.00639829 0.00749777 0.00749988 0.00839998 0.00749976 0.0083967 0.00749976 0.0083967 0.00749777 0.00839716 0.00749718 0.00839683 0.00749713 0.00839679 0.00749713 0.00839679 0.00749708 0.00839673 0.00639756 0.00749713 0.00639752 0.00749708 0.0063976 0.00749718 0.00639756 0.00749713 0.00639748 0.005098 0.00639752 0.00509804 0.00639743 0.00509797 0.00639748 0.005098 0.00509797 0.00359858 0.005098 0.0035986 0.005098 0.0035986 0.00509804 0.00359862 0.00909551 0.00839547 0.00909556 0.00839542 0.00959563 0.00909551 0.00959555 0.00909556 0.00959564 0.0090954 0.00959563 0.00909551 0.0090954 0.00839456 0.00909551 0.00839547 0.00359742 0.00359779 0.00509691 0.00509708 0.00359779 0.0035981 0.00509708 0.00509747 0.00509708 0.00509747 0.00639697 0.00639696 0.00509691 0.00509708 0.00639651 0.00639697 0.00189799 0.00189718 0.00359679 0.00359607 0.00189845 0.00189799 0.00359742 0.00359679 0 0 0.00189845 0.00189799 0 0 0.00189799 0.00189718 0.00359504 0.00359607 0.00509615 0.00509601 0.00509615 0.00509601 0.0063944 0.00639911 0.00509857 0.00509615 0.00640082 0.0063944 0.0035932 0.00359504 0.00509857 0.00509615 0.00839793 0.00909799 0.00839878 0.00909767 0.00840551 0.00909994 0.00839793 0.00909799 0.00909994 0.00959702 0.00909799 0.00959734 0.00909799 0.00959734 0.00909767 0.00959709 0.00959506 0.00989489 0.00959506 0.0098949 0.00959507 0.00989489 0.00959506 0.00989489 0.00989489 0.00999482 0.00989489 0.00999483 0.00989489 0.00999483 0.0098949 0.00999483 0.00959511 0.00989478 0.00959509 0.00989481 0.00989478 0.00999457 0.00989481 0.00999466 0.00989481 0.00999466 0.00989484 0.00999471 0.00959509 0.00989481 0.00959508 0.00989484 0.00839633 0.00749699 0.00839623 0.00749704 0.00749699 0.00639758 0.00749704 0.00639783 0.00749704 0.00639783 0.00749719 0.00639805 0.00839623 0.00749704 0.00839617 0.00749719 0.00909532 0.00909532 0.00839568 0.00839568 0.00909531 0.00909532 0.00839568 0.00839568 0.00959505 0.00959505 0.00909531 0.00909532 0.00959505 0.00959505 0.00909532 0.00909532 0.00909533 0.00839572 0.00909533 0.00839571 0.00909533 0.00839571 0.00909532 0.0083957 0.00959505 0.00909533 0.00959505 0.00909532 0.00959505 0.00909533 0.00959505 0.00909533 0.00909531 0.00909531 0.00839567 0.00839567 0.00909531 0.00909531 0.00839567 0.00839567 0.00959505 0.00959505 0.00909531 0.00909531 0.00959505 0.00959505 0.00909531 0.00909531 0.00359742 0.00189845 0.00359779 0.00189876 0.00189845 0 0.00189876 0 0.00189876 0 0.00189897 0 0.00359779 0.00189876 0.0035981 0.00189897 0.0063976 0.00639765 0.00749718 0.00749721 0.00639765 0.0063977 0.00749721 0.00749725 0.00749721 0.00749725 0.00839685 0.00839687 0.00749718 0.00749721 0.00839683 0.00839685 0.00639758 0.00639747 0.00749699 0.00749709 0.00639747 0.00639747 0.00749709 0.00749668 0.00749709 0.00749668 0.00839627 0.0083991 0.00749699 0.00749709 0.00839633 0.00839627 0.00749936 0.00749444 0.00639651 0.00639675 0.00749444 0.00749976 0.00639675 0.00639911 0.00909588 0.00839627 0.00909577 0.00839619 0.00909577 0.00839619 0.00909568 0.00839612 0.00959549 0.00909577 0.00959529 0.00909568 0.00959558 0.00909588 0.00959549 0.00909577 0.00749309 0.00749816 0.00839547 0.00839542 0.00749314 0.00749309 0.00839456 0.00839547 0 0 0.00189806 0.00189832 0 0 0.00189832 0.00189849 0.00749643 0.00749638 0.00839526 0.00839562 0.00639733 0.00639708 0.00749643 0.00749638 0.00639708 0.00639696 0.00749638 0.00749646 0.00749638 0.00749646 0.00839562 0.00839603 0.00749722 0.0074971 0.0083971 0.00839727 0.0074993 0.00749722 0.00839639 0.0083971 0.00639996 0.00639499 0.0074993 0.00749722 0.00639499 0.0064002 0.00749722 0.0074971 0.00749888 0.00750096 0.00639727 0.00640228 0.00749901 0.00749888 0.00640275 0.00639727 0.008398 0.00839818 0.00749901 0.00749888 0.00839818 0.0083977 0.00749888 0.00750096 0 0 0.00189865 0.00189868 0 0 0.00189868 0.00189867 0.00909552 0.00909546 0.00839597 0.0083959 0.00959511 0.00959509 0.00909552 0.00909546 0.00959509 0.00959508 0.00909546 0.00909542 0.00909546 0.00909542 0.0083959 0.00839584 0.00839539 0.00909552 0.00839532 0.00909548 0.00839534 0.0090956 0.00839539 0.00909552 0.0090956 0.00959585 0.00909552 0.00959573 0.00909552 0.00959573 0.00909548 0.00959573 0 0 0.00189866 0.00189872 0 0 0.00189872 0.00189873 0.00749638 0.00639697 0.00749645 0.00639696 0.00839562 0.00749638 0.00839603 0.00749645 0.0084003 0.00749936 0.00839562 0.00749638 0.00749936 0.00639651 0.00749638 0.00639697 0.00989601 0.00989596 0.00999607 0.00999606 0.00989607 0.00989601 0.00999612 0.00999607 0.00959621 0.00959613 0.00989607 0.00989601 0.00959613 0.0095961 0.00989601 0.00989596 0.00189916 0 0.00189917 0 0.00189917 0 0.00189916 0 0.00189916 0 0.00189914 0 0.00189914 0 0.00189915 0 0.0064002 0.00510105 0.00639805 0.00509611 0.00639805 0.00509611 0.00639784 0.0051012 0.00750122 0.00749926 0.00640221 0.0063974 0.00840551 0.00839793 0.00749979 0.00750122 0.00839793 0.00839878 0.00750122 0.00749926 0.00189956 0.0018994 0.00359897 0.00359879 0.00189941 0.00189956 0.0035989 0.00359897 0 0 0.00189941 0.00189956 0 0 0.00189956 0.0018994 0.00639783 0.00639804 0.00509834 0.00509897 0.00509834 0.00509897 0.00360216 0.00359767 0.00509864 0.00509834 0.0035989 0.00360216 0.00639758 0.00639783 0.00509864 0.00509834 0.00749728 0.00839624 0.00749751 0.00839702 0.0063983 0.00749728 0.00639784 0.00749751 0.00639804 0.00749718 0.0063983 0.00749728 0.00749718 0.00839616 0.00749728 0.00839624 0.0050985 0.00359898 0.00509866 0.00359907 0.006398 0.0050985 0.00639818 0.00509866 0.00639787 0.00509837 0.006398 0.0050985 0.00509837 0.00359889 0.0050985 0.00359898 0.006398 0.00639818 0.00749748 0.00749762 0.00749748 0.00749762 0.00839698 0.00839705 0.00749738 0.00749748 0.00839693 0.00839698 0.00639787 0.006398 0.00749738 0.00749748 0.00909669 0.00909612 0.00839657 0.00839862 0.00909668 0.00909669 0.00839639 0.00839657 0.00959657 0.00959654 0.00909668 0.00909669 0.00959654 0.00959646 0.00909669 0.00909612 0.00909572 0.00909564 0.00839613 0.00839589 0.00959554 0.00959551 0.00909572 0.00909564 0.00959551 0.0095955 0.00909564 0.00909562 0.00909564 0.00909562 0.00839589 0.00839595 0.00359678 0.00359607 0.00189799 0.00189718 0.00189799 0.00189718 0 0 0.00189845 0.00189799 0 0 0.00359742 0.00359678 0.00189845 0.00189799 0.00909654 0.00839705 0.00909652 0.00839708 0.00909652 0.00839708 0.00909637 0.00839716 0.00959613 0.00909652 0.0095961 0.00909637 0.00959621 0.00909654 0.00959613 0.00909652 0.00909664 0.00909637 0.0083967 0.00839716 0.00909634 0.00909664 0.00839998 0.0083967 0.00959624 0.00959601 0.00909634 0.00909664 0.00959601 0.0095961 0.00909664 0.00909637 0.00509894 0.00359919 0.00509878 0.00359905 0.00639849 0.00509894 0.00639829 0.00509878 0.00639818 0.00509866 0.00639849 0.00509894 0.00509866 0.00359907 0.00509894 0.00359919 0.00909573 0.0083949 0.00909549 0.00839509 0.00909549 0.00839509 0.00909538 0.00839517 0.00959582 0.00909549 0.00959565 0.00909538 0.00959615 0.00909573 0.00959582 0.00909549 0.00909528 0.00839506 0.0090953 0.00839487 0.0090953 0.00839487 0.00909544 0.00839455 0.00959571 0.0090953 0.00959603 0.00909544 0.00959559 0.00909528 0.00959571 0.0090953 0.00509897 0.00509831 0.00359767 0.00359781 0.00639804 0.0063983 0.00509897 0.00509831 0.0063983 0.00639784 0.00509831 0.0051012 0.00509831 0.0051012 0.00359781 0.00360255 0.00189912 0 0.00189914 0 0.00189914 0 0.00189916 0 0.00509772 0.00359837 0.00509747 0.0035981 0.00639708 0.00509772 0.00639696 0.00509747 0.00639733 0.00509791 0.00639708 0.00509772 0.00509791 0.00359856 0.00509772 0.00359837 0.00639651 0.00639675 0.00749936 0.00749444 0.00639675 0.00639911 0.00749444 0.00749976 0.00909668 0.00839639 0.00909643 0.0083971 0.00909643 0.0083971 0.00909694 0.00839727 0.00959926 0.00909643 0.00959444 0.00909694 0.00959657 0.00909668 0.00959926 0.00909643 0.00639777 0.00639787 0.0074973 0.00749738 0.0074973 0.00749738 0.00839689 0.00839693 0.00749725 0.0074973 0.00839687 0.00839689 0.0063977 0.00639777 0.00749725 0.0074973 0.00909657 0.00839687 0.00909655 0.00839689 0.00909655 0.00839689 0.00909655 0.00839693 0.00959633 0.00909655 0.00959629 0.00909655 0.00959639 0.00909657 0.00959633 0.00909655 0.00189902 0.00189902 0 0 0.00189903 0.00189902 0 0 0.00639671 0.00749615 0.00639672 0.00749615 0.00639671 0.00749614 0.00639671 0.00749615 0.00749614 0.00839568 0.00749615 0.00839568 0.00749615 0.00839568 0.00749615 0.00839568 0.00639678 0.00639676 0.0074962 0.00749618 0.00639676 0.00639674 0.00749618 0.00749617 0.00749618 0.00749617 0.00839571 0.0083957 0.0074962 0.00749618 0.00839572 0.00839571 0.00639747 0.00639744 0.00749668 0.0074971 0.00639744 0.00639733 0.0074971 0.00749643 0.0074971 0.00749643 0.00839468 0.00839526 0.00749668 0.0074971 0.0083991 0.00839468 0.00989451 0.00999501 0.00989907 0.00999783 0.00909546 0.00909555 0.0083959 0.00839598 0.00909541 0.00909546 0.00839584 0.0083959 0.00959503 0.00959506 0.00909541 0.00909546 0.00959506 0.00959512 0.00909546 0.00909555 0.00909542 0.00909516 0.00839622 0.00839616 0.00909576 0.00909542 0.00839633 0.00839622 0.00909659 0.00839683 0.00909659 0.00839685 0.00909659 0.00839685 0.00909657 0.00839687 0.00959646 0.00909659 0.00959639 0.00909657 0.00959646 0.00909659 0.00959646 0.00909659 0.0064002 0.00639805 0.0074971 0.00749766 0.00639805 0.00639784 0.00749766 0.00749751 0.00749766 0.00749751 0.00839672 0.00839702 0.0074971 0.00749766 0.00839727 0.00839672 0.00188616 0 0.00189269 0 0.0035959 0.00188616 0.0035932 0.00189269 0.0036 0.0019 0.0035959 0.00188616 0.0019 0 0.00188616 0 0.00959506 0.0098947 0.00959512 0.00989467 0.00959503 0.00989475 0.00959506 0.0098947 0.00989475 0.0099946 0.0098947 0.00999448 0.0098947 0.00999448 0.00989467 0.00999427 0.00959622 0.00909635 0.0095963 0.00909647 0.0095959 0.00909622 0.00959622 0.00909635 0.00909622 0.00839655 0.00909635 0.00839665 0.00909635 0.00839665 0.00909647 0.00839673 0.00189876 0.00359779 0.00189897 0.0035981 0 0.00189876 0 0.00189897 0 0.00189845 0 0.00189876 0.00189845 0.00359742 0.00189876 0.00359779 0.00509807 0.00509804 0.00359864 0.00359862 0.0050981 0.00509807 0.00359867 0.00359864 0.0063976 0.00639756 0.0050981 0.00509807 0.00639756 0.00639752 0.00509807 0.00509804 0.00509805 0.00359868 0.00509791 0.00359856 0.00639744 0.00509805 0.00639733 0.00509791 0.00639747 0.00509813 0.00639744 0.00509805 0.00509813 0.00359879 0.00509805 0.00359868 0.00909576 0.00839633 0.00909529 0.00839627 0.00909529 0.00839627 0.00909987 0.0083991 0.00189909 0.00189906 0 0 0.00189912 0.00189909 0 0 0.00989648 0.00999605 0.00989626 0.00999594 0.00959691 0.00989648 0.00959701 0.00989626 0.00959693 0.00989654 0.00959691 0.00989648 0.00989654 0.00999616 0.00989648 0.00999605 0.0035932 0.00189269 0.00359504 0.00189546 0.00189269 0 0.00189546 0 0.00189546 0 0.00189718 0 0.00359504 0.00189546 0.00359607 0.00189718 0.00189926 0.00189914 0.00359856 0.00359837 0 0 0.00189926 0.00189914 0 0 0.00189914 0.00189897 0.00189914 0.00189897 0.00359837 0.0035981 0 0 0.00189927 0.00189927 0.00189927 