# vtk DataFile Version 3.0
#This file was generated by the deal.II library on 2020/11/19 at 17:08:57
ASCII
DATASET UNSTRUCTURED_GRID

POINTS 15668 double
0.75 0.09 0
0.76 0.09 0
0.75 0.1 0
0.76 0.1 0
0.74 0.09 0
0.75 0.09 0
0.74 0.1 0
0.75 0.1 0
0.74 0.08 0
0.75 0.08 0
0.74 0.09 0
0.75 0.09 0
0.75 0.08 0
0.76 0.08 0
0.75 0.09 0
0.76 0.09 0
0.59 0.09 0
0.6 0.09 0
0.59 0.1 0
0.6 0.1 0
0.58 0.09 0
0.59 0.09 0
0.58 0.1 0
0.59 0.1 0
0.58 0.08 0
0.59 0.08 0
0.58 0.09 0
0.59 0.09 0
0.59 0.08 0
0.6 0.08 0
0.59 0.09 0
0.6 0.09 0
0.69 0.09 0
0.7 0.09 0
0.69 0.1 0
0.7 0.1 0
0.68 0.09 0
0.69 0.09 0
0.68 0.1 0
0.69 0.1 0
0.68 0.08 0
0.69 0.08 0
0.68 0.09 0
0.69 0.09 0
0.69 0.08 0
0.7 0.08 0
0.69 0.09 0
0.7 0.09 0
0.71 0.09 0
0.72 0.09 0
0.71 0.1 0
0.72 0.1 0
0.7 0.09 0
0.71 0.09 0
0.7 0.1 0
0.71 0.1 0
0.7 0.08 0
0.71 0.08 0
0.7 0.09 0
0.71 0.09 0
0.71 0.08 0
0.72 0.08 0
0.71 0.09 0
0.72 0.09 0
0.65 0.11 0
0.64 0.11 0
0.65 0.1 0
0.64 0.1 0
0.66 0.11 0
0.65 0.11 0
0.66 0.1 0
0.65 0.1 0
0.66 0.12 0
0.65 0.12 0
0.66 0.11 0
0.65 0.11 0
0.65 0.12 0
0.64 0.12 0
0.65 0.11 0
0.64 0.11 0
0.78 0.09 0
0.79 0.09 0
0.78 0.1 0
0.79 0.1 0
0.78 0.08 0
0.79 0.08 0
0.78 0.09 0
0.79 0.09 0
0.77 0.08 0
0.77 0.09 0
0.76 0.08 0
0.76 0.09 0
0.78 0.08 0
0.78 0.09 0
0.77 0.08 0
0.77 0.09 0
0.78 0.09 0
0.78 0.1 0
0.77 0.09 0
0.77 0.1 0
0.77 0.09 0
0.77 0.1 0
0.76 0.09 0
0.76 0.1 0
0.73 0.09 0
0.74 0.09 0
0.73 0.1 0
0.74 0.1 0
0.72 0.09 0
0.73 0.09 0
0.72 0.1 0
0.73 0.1 0
0.72 0.08 0
0.73 0.08 0
0.72 0.09 0
0.73 0.09 0
0.73 0.08 0
0.74 0.08 0
0.73 0.09 0
0.74 0.09 0
0.66 0.09 0
0.66 0.1 0
0.65 0.09 0
0.65 0.1 0
0.65 0.09 0
0.65 0.1 0
0.64 0.09 0
0.64 0.1 0
0.65 0.08 0
0.65 0.09 0
0.64 0.08 0
0.64 0.09 0
0.66 0.08 0
0.66 0.09 0
0.65 0.08 0
0.65 0.09 0
0.61 0.12 0
0.61 0.11 0
0.62 0.12 0
0.62 0.11 0
0.6 0.12 0
0.6 0.11 0
0.61 0.12 0
0.61 0.11 0
0.6 0.11 0
0.6 0.1 0
0.61 0.11 0
0.61 0.1 0
0.61 0.11 0
0.61 0.1 0
0.62 0.11 0
0.62 0.1 0
0.55 0.08 0
0.55 0.09 0
0.54 0.08 0
0.54 0.09 0
0.56 0.08 0
0.56 0.09 0
0.55 0.08 0
0.55 0.09 0
0.56 0.09 0
0.56 0.1 0
0.55 0.09 0
0.55 0.1 0
0.55 0.09 0
0.55 0.1 0
0.54 0.09 0
0.54 0.1 0
0.57 0.09 0
0.58 0.09 0
0.57 0.1 0
0.58 0.1 0
0.56 0.09 0
0.57 0.09 0
0.56 0.1 0
0.57 0.1 0
0.56 0.08 0
0.57 0.08 0
0.56 0.09 0
0.57 0.09 0
0.57 0.08 0
0.58 0.08 0
0.57 0.09 0
0.58 0.09 0
0.93 0.05 0
0.93 0.06 0
0.92 0.05 0
0.92 0.06 0
0.93 0.04 0
0.93 0.05 0
0.92 0.04 0
0.92 0.05 0
0.94 0.04 0
0.94 0.05 0
0.93 0.04 0
0.93 0.05 0
0.94 0.05 0
0.94 0.06 0
0.93 0.05 0
0.93 0.06 0
0.53 0.09 0
0.54 0.09 0
0.53 0.1 0
0.54 0.1 0
0.52 0.09 0
0.53 0.09 0
0.52 0.1 0
0.53 0.1 0
0.52 0.08 0
0.53 0.08 0
0.52 0.09 0
0.53 0.09 0
0.53 0.08 0
0.54 0.08 0
0.53 0.09 0
0.54 0.09 0
0.51 0.09 0
0.52 0.09 0
0.51 0.1 0
0.52 0.1 0
0.5 0.09 0
0.51 0.09 0
0.5 0.1 0
0.51 0.1 0
0.5 0.08 0
0.51 0.08 0
0.5 0.09 0
0.51 0.09 0
0.51 0.08 0
0.52 0.08 0
0.51 0.09 0
0.52 0.09 0
0.6 0.09 0
0.61 0.09 0
0.6 0.1 0
0.61 0.1 0
0.6 0.08 0
0.61 0.08 0
0.6 0.09 0
0.61 0.09 0
0.61 0.08 0
0.62 0.08 0
0.61 0.09 0
0.62 0.09 0
0.61 0.09 0
0.62 0.09 0
0.61 0.1 0
0.62 0.1 0
0.03 0.14 0
0.03 0.15 0
0.02 0.14 0
0.02 0.15 0
0.03 0.05 0
0.03 0.06 0
0.02 0.05 0
0.02 0.06 0
0.49 0.09 0
0.5 0.09 0
0.49 0.1 0
0.5 0.1 0
0.48 0.09 0
0.49 0.09 0
0.48 0.1 0
0.49 0.1 0
0.48 0.08 0
0.49 0.08 0
0.48 0.09 0
0.49 0.09 0
0.49 0.08 0
0.5 0.08 0
0.49 0.09 0
0.5 0.09 0
0.47 0.19 0
0.48 0.19 0
0.47 0.2 0
0.48 0.2 0
0.46 0.19 0
0.47 0.19 0
0.46 0.2 0
0.47 0.2 0
0.95 0.17 0
0.95 0.16 0
0.96 0.17 0
0.96 0.16 0
0.95 0.18 0
0.95 0.17 0
0.96 0.18 0
0.96 0.17 0
0.94 0.18 0
0.94 0.17 0
0.95 0.18 0
0.95 0.17 0
0.94 0.17 0
0.94 0.16 0
0.95 0.17 0
0.95 0.16 0
0.77 0.05 0
0.77 0.06 0
0.76 0.05 0
0.76 0.06 0
0.78 0.05 0
0.78 0.06 0
0.77 0.05 0
0.77 0.06 0
0.86 0.05 0
0.86 0.06 0
0.85 0.05 0
0.85 0.06 0
0.85 0.05 0
0.85 0.06 0
0.84 0.05 0
0.84 0.06 0
0.85 0.04 0
0.85 0.05 0
0.84 0.04 0
0.84 0.05 0
0.86 0.04 0
0.86 0.05 0
0.85 0.04 0
0.85 0.05 0
0.67 0.09 0
0.68 0.09 0
0.67 0.1 0
0.68 0.1 0
0.66 0.09 0
0.67 0.09 0
0.66 0.1 0
0.67 0.1 0
0.66 0.08 0
0.67 0.08 0
0.66 0.09 0
0.67 0.09 0
0.67 0.08 0
0.68 0.08 0
0.67 0.09 0
0.68 0.09 0
0.63 0.05 0
0.64 0.05 0
0.63 0.06 0
0.64 0.06 0
0.62 0.05 0
0.63 0.05 0
0.62 0.06 0
0.63 0.06 0
0.62 0.04 0
0.63 0.04 0
0.62 0.05 0
0.63 0.05 0
0.63 0.04 0
0.64 0.04 0
0.63 0.05 0
0.64 0.05 0
0.97 0.01 0
0.97 0.02 0
0.96 0.01 0
0.96 0.02 0
0.97 0 0
0.97 0.01 0
0.96 0 0
0.96 0.01 0
0.98 0 0
0.98 0.01 0
0.97 0 0
0.97 0.01 0
0.98 0.01 0
0.98 0.02 0
0.97 0.01 0
0.97 0.02 0
0.94 0.04 0
0.93 0.04 0
0.94 0.03 0
0.93 0.03 0
0.93 0.04 0
0.92 0.04 0
0.93 0.03 0
0.92 0.03 0
0.93 0.03 0
0.92 0.03 0
0.93 0.02 0
0.92 0.02 0
0.94 0.03 0
0.93 0.03 0
0.94 0.02 0
0.93 0.02 0
0.09 0.12 0
0.09 0.11 0
0.1 0.12 0
0.1 0.11 0
0.08 0.12 0
0.08 0.11 0
0.09 0.12 0
0.09 0.11 0
0.08 0.11 0
0.08 0.1 0
0.09 0.11 0
0.09 0.1 0
0.09 0.11 0
0.09 0.1 0
0.1 0.11 0
0.1 0.1 0
0.88 0.19 0
0.89 0.19 0
0.88 0.2 0
0.89 0.2 0
0.88 0.18 0
0.89 0.18 0
0.88 0.19 0
0.89 0.19 0
0.89 0.18 0
0.9 0.18 0
0.89 0.19 0
0.9 0.19 0
0.89 0.19 0
0.9 0.19 0
0.89 0.2 0
0.9 0.2 0
0.97 0.03 0
0.96 0.03 0
0.97 0.02 0
0.96 0.02 0
0.98 0.03 0
0.97 0.03 0
0.98 0.02 0
0.97 0.02 0
0.98 0.04 0
0.97 0.04 0
0.98 0.03 0
0.97 0.03 0
0.97 0.04 0
0.96 0.04 0
0.97 0.03 0
0.96 0.03 0
0.55 0.07 0
0.54 0.07 0
0.55 0.06 0
0.54 0.06 0
0.56 0.07 0
0.55 0.07 0
0.56 0.06 0
0.55 0.06 0
0.56 0.08 0
0.55 0.08 0
0.56 0.07 0
0.55 0.07 0
0.55 0.08 0
0.54 0.08 0
0.55 0.07 0
0.54 0.07 0
0.68 0.04 0
0.68 0.03 0
0.69 0.04 0
0.69 0.03 0
0.65 0.04 0
0.64 0.04 0
0.65 0.03 0
0.64 0.03 0
0.65 0.03 0
0.64 0.03 0
0.65 0.02 0
0.64 0.02 0
0.66 0.03 0
0.65 0.03 0
0.66 0.02 0
0.65 0.02 0
0.66 0.04 0
0.65 0.04 0
0.66 0.03 0
0.65 0.03 0
0.08 0.14 0
0.07 0.14 0
0.08 0.13 0
0.07 0.13 0
0.07 0.14 0
0.06 0.14 0
0.07 0.13 0
0.06 0.13 0
0.07 0.13 0
0.06 0.13 0
0.07 0.12 0
0.06 0.12 0
0.08 0.13 0
0.07 0.13 0
0.08 0.12 0
0.07 0.12 0
0.62 0.11 0
0.62 0.1 0
0.63 0.11 0
0.63 0.1 0
0.63 0.11 0
0.63 0.1 0
0.64 0.11 0
0.64 0.1 0
0.63 0.12 0
0.63 0.11 0
0.64 0.12 0
0.64 0.11 0
0.62 0.12 0
0.62 0.11 0
0.63 0.12 0
0.63 0.11 0
0.87 0.04 0
0.87 0.03 0
0.88 0.04 0
0.88 0.03 0
0.86 0.04 0
0.86 0.03 0
0.87 0.04 0
0.87 0.03 0
0.86 0.03 0
0.86 0.02 0
0.87 0.03 0
0.87 0.02 0
0.87 0.03 0
0.87 0.02 0
0.88 0.03 0
0.88 0.02 0
0.51 0.17 0
0.51 0.16 0
0.52 0.17 0
0.52 0.16 0
0.51 0.18 0
0.51 0.17 0
0.52 0.18 0
0.52 0.17 0
0.5 0.18 0
0.5 0.17 0
0.51 0.18 0
0.51 0.17 0
0.5 0.17 0
0.5 0.16 0
0.51 0.17 0
0.51 0.16 0
0.08 0.13 0
0.08 0.12 0
0.09 0.13 0
0.09 0.12 0
0.09 0.13 0
0.09 0.12 0
0.1 0.13 0
0.1 0.12 0
0.08 0.14 0
0.08 0.13 0
0.09 0.14 0
0.09 0.13 0
0.88 0.18 0
0.88 0.17 0
0.89 0.18 0
0.89 0.17 0
0.88 0.17 0
0.88 0.16 0
0.89 0.17 0
0.89 0.16 0
0.89 0.17 0
0.89 0.16 0
0.9 0.17 0
0.9 0.16 0
0.89 0.18 0
0.89 0.17 0
0.9 0.18 0
0.9 0.17 0
0.91 0.14 0
0.92 0.14 0
0.91 0.15 0
0.92 0.15 0
0.91 0.15 0
0.92 0.15 0
0.91 0.16 0
0.92 0.16 0
0.9 0.15 0
0.91 0.15 0
0.9 0.16 0
0.91 0.16 0
0.9 0.14 0
0.91 0.14 0
0.9 0.15 0
0.91 0.15 0
0.5 0 0
0.51 0 0
0.5 0.01 0
0.51 0.01 0
0.51 0 0
0.52 0 0
0.51 0.01 0
0.52 0.01 0
0.51 0.01 0
0.52 0.01 0
0.51 0.02 0
0.52 0.02 0
0.5 0.01 0
0.51 0.01 0
0.5 0.02 0
0.51 0.02 0
0.91 0.18 0
0.92 0.18 0
0.91 0.19 0
0.92 0.19 0
0.91 0.19 0
0.92 0.19 0
0.91 0.2 0
0.92 0.2 0
0.9 0.19 0
0.91 0.19 0
0.9 0.2 0
0.91 0.2 0
0.9 0.18 0
0.91 0.18 0
0.9 0.19 0
0.91 0.19 0
0.04 0.08 0
0.04 0.09 0
0.03 0.08 0
0.03 0.09 0
0.04 0.09 0
0.04 0.1 0
0.03 0.09 0
0.03 0.1 0
0.03 0.09 0
0.03 0.1 0
0.02 0.09 0
0.02 0.1 0
0.03 0.08 0
0.03 0.09 0
0.02 0.08 0
0.02 0.09 0
0.59 0.12 0
0.59 0.11 0
0.6 0.12 0
0.6 0.11 0
0.58 0.12 0
0.58 0.11 0
0.59 0.12 0
0.59 0.11 0
0.58 0.11 0
0.58 0.1 0
0.59 0.11 0
0.59 0.1 0
0.59 0.11 0
0.59 0.1 0
0.6 0.11 0
0.6 0.1 0
0.05 0.14 0
0.04 0.14 0
0.05 0.13 0
0.04 0.13 0
0.05 0.13 0
0.04 0.13 0
0.05 0.12 0
0.04 0.12 0
0.06 0.13 0
0.05 0.13 0
0.06 0.12 0
0.05 0.12 0
0.06 0.14 0
0.05 0.14 0
0.06 0.13 0
0.05 0.13 0
0.99 0 0
0.99 0.01 0
0.98 0 0
0.98 0.01 0
1 0 0
1 0.01 0
0.99 0 0
0.99 0.01 0
1 0.01 0
1 0.02 0
0.99 0.01 0
0.99 0.02 0
0.99 0.01 0
0.99 0.02 0
0.98 0.01 0
0.98 0.02 0
0.27 0.08 0
0.27 0.09 0
0.26 0.08 0
0.26 0.09 0
0.28 0.08 0
0.28 0.09 0
0.27 0.08 0
0.27 0.09 0
0.28 0.09 0
0.28 0.1 0
0.27 0.09 0
0.27 0.1 0
0.27 0.09 0
0.27 0.1 0
0.26 0.09 0
0.26 0.1 0
0.9 0.18 0
0.9 0.17 0
0.91 0.18 0
0.91 0.17 0
0.9 0.17 0
0.9 0.16 0
0.91 0.17 0
0.91 0.16 0
0.91 0.17 0
0.91 0.16 0
0.92 0.17 0
0.92 0.16 0
0.91 0.18 0
0.91 0.17 0
0.92 0.18 0
0.92 0.17 0
0.22 0.08 0
0.23 0.08 0
0.22 0.09 0
0.23 0.09 0
0.23 0.08 0
0.24 0.08 0
0.23 0.09 0
0.24 0.09 0
0.23 0.09 0
0.24 0.09 0
0.23 0.1 0
0.24 0.1 0
0.22 0.09 0
0.23 0.09 0
0.22 0.1 0
0.23 0.1 0
0.46 0.14 0
0.47 0.14 0
0.46 0.15 0
0.47 0.15 0
0.47 0.14 0
0.48 0.14 0
0.47 0.15 0
0.48 0.15 0
0.47 0.15 0
0.48 0.15 0
0.47 0.16 0
0.48 0.16 0
0.67 0.08 0
0.67 0.07 0
0.68 0.08 0
0.68 0.07 0
0.66 0.08 0
0.66 0.07 0
0.67 0.08 0
0.67 0.07 0
0.66 0.07 0
0.66 0.06 0
0.67 0.07 0
0.67 0.06 0
0.67 0.07 0
0.67 0.06 0
0.68 0.07 0
0.68 0.06 0
0.71 0.08 0
0.71 0.07 0
0.72 0.08 0
0.72 0.07 0
0.7 0.08 0
0.7 0.07 0
0.71 0.08 0
0.71 0.07 0
0.7 0.07 0
0.7 0.06 0
0.71 0.07 0
0.71 0.06 0
0.71 0.07 0
0.71 0.06 0
0.72 0.07 0
0.72 0.06 0
0.75 0.08 0
0.75 0.07 0
0.76 0.08 0
0.76 0.07 0
0.74 0.08 0
0.74 0.07 0
0.75 0.08 0
0.75 0.07 0
0.74 0.07 0
0.74 0.06 0
0.75 0.07 0
0.75 0.06 0
0.75 0.07 0
0.75 0.06 0
0.76 0.07 0
0.76 0.06 0
0.71 0.12 0
0.71 0.11 0
0.72 0.12 0
0.72 0.11 0
0.7 0.12 0
0.7 0.11 0
0.71 0.12 0
0.71 0.11 0
0.7 0.11 0
0.7 0.1 0
0.71 0.11 0
0.71 0.1 0
0.71 0.11 0
0.71 0.1 0
0.72 0.11 0
0.72 0.1 0
0.58 0.03 0
0.58 0.02 0
0.59 0.03 0
0.59 0.02 0
0.59 0.03 0
0.59 0.02 0
0.6 0.03 0
0.6 0.02 0
0.59 0.04 0
0.59 0.03 0
0.6 0.04 0
0.6 0.03 0
0.58 0.04 0
0.58 0.03 0
0.59 0.04 0
0.59 0.03 0
0.61 0.08 0
0.61 0.07 0
0.62 0.08 0
0.62 0.07 0
0.6 0.08 0
0.6 0.07 0
0.61 0.08 0
0.61 0.07 0
0.6 0.07 0
0.6 0.06 0
0.61 0.07 0
0.61 0.06 0
0.61 0.07 0
0.61 0.06 0
0.62 0.07 0
0.62 0.06 0
0.57 0.04 0
0.57 0.03 0
0.58 0.04 0
0.58 0.03 0
0.56 0.04 0
0.56 0.03 0
0.57 0.04 0
0.57 0.03 0
0.56 0.03 0
0.56 0.02 0
0.57 0.03 0
0.57 0.02 0
[...]
POINT_DATA 15668
SCALARS solution_0 double 1
LOOKUP_TABLE default
0.00989707 0.00989717 0.00999717 0.00999731 0.00989704 0.00989707 0.00999711 0.00999717 0.0095969 0.0095967 0.00989704 0.00989707 0.0095967 0.00959693 0.00989707 0.00989717 0.00989718 0.00989716 0.00999718 0.00999715 0.00989718 0.00989718 0.0099972 0.00999718 0.00959724 0.00959724 0.00989718 0.00989718 0.00959724 0.00959724 0.00989718 0.00989716 0.00989669 0.00989679 0.00999667 0.0099968 0.00989661 0.00989669 0.00999659 0.00999667 0.0095967 0.00959677 0.00989661 0.00989669 0.00959677 0.0095969 0.00989669 0.00989679 0.0098969 0.00989699 0.00999691 0.00999701 0.00989679 0.0098969 0.0099968 0.00999691 0.0095969 0.0095968 0.00989679 0.0098969 0.0095968 0.009597 0.0098969 0.00989699 0.00989679 0.00989691 0.00999674 0.00999685 0.00989668 0.00989679 0.00999663 0.00999674 0.00959684 0.00959696 0.00989668 0.00989679 0.00959696 0.00959708 0.00989679 0.00989691 0.00989688 0.00990363 0.00999747 0.0100032 0.00959682 0.00959944 0.00989688 0.00990363 0.00959703 0.00989741 0.00959693 0.00989717 0.00959682 0.00989688 0.00959703 0.00989741 0.00989688 0.00999747 0.00989741 0.00999753 0.00989741 0.00999753 0.00989717 0.00999731 0.00989708 0.00989704 0.00999708 0.00999711 0.00989699 0.00989708 0.00999701 0.00999708 0.009597 0.00959699 0.00989699 0.00989708 0.00959699 0.0095969 0.00989708 0.00989704 0.00989668 0.00999663 0.00989679 0.00999674 0.00989679 0.00999674 0.00989689 0.00999685 0.00959696 0.00989679 0.00959705 0.00989689 0.00959685 0.00989668 0.00959696 0.00989679 0.00959733 0.00989718 0.00959726 0.00989711 0.00959738 0.00989723 0.00959733 0.00989718 0.00989723 0.00999715 0.00989718 0.00999711 0.00989718 0.00999711 0.00989711 0.00999704 0.00959714 0.0098971 0.00959709 0.00989706 0.00959718 0.00989714 0.00959714 0.0098971 0.00989714 0.00999718 0.0098971 0.00999715 0.0098971 0.00999715 0.00989706 0.00999711 0.00989717 0.00989718 0.00999719 0.0099972 0.00989714 0.00989717 0.00999718 0.00999719 0.00959718 0.00959721 0.00989714 0.00989717 0.00959721 0.00959724 0.00989717 0.00989718 0.00749638 0.00839562 0.00749646 0.00839603 0.00639698 0.00749638 0.00639696 0.00749646 0.00639651 0.00749936 0.00639698 0.00749638 0.00749936 0.0084003 0.00749638 0.00839562 0.009897 0.00989706 0.00999705 0.00999711 0.00989694 0.009897 0.009997 0.00999705 0.00959697 0.00959703 0.00989694 0.009897 0.00959703 0.00959709 0.009897 0.00989706 0.00989688 0.00989694 0.00999694 0.009997 0.00989683 0.00989688 0.00999689 0.00999694 0.00959686 0.00959691 0.00989683 0.00989688 0.00959691 0.00959697 0.00989688 0.00989694 0.00989716 0.00989712 0.00999715 0.00999711 0.00959724 0.00959722 0.00989716 0.00989712 0.00959722 0.00959718 0.00989712 0.00989706 0.00989712 0.00989706 0.00999711 0.00999704 0.00839925 0.00750099 0.00839642 0.00749648 0.00749993 0.00839826 0.00749556 0.00839556 0.00989678 0.00989683 0.00999685 0.00999689 0.00989673 0.00989678 0.00999681 0.00999685 0.00959675 0.0095968 0.00989673 0.00989678 0.0095968 0.00959686 0.00989678 0.00989683 0.00189831 0.00189846 0 0 0.0018984 0.00189831 0 0 0.00509676 0.00639675 0.00509601 0.00639911 0.00359679 0.00509676 0.00359608 0.00509601 0.00359742 0.00509692 0.00359679 0.00509676 0.00509692 0.00639651 0.00509676 0.00639675 0.00749443 0.0083966 0.0074951 0.00839588 0.00749905 0.00839628 0.00749443 0.0083966 0.00749699 0.00839633 0.00749703 0.00839622 0.00749703 0.00839622 0.00749718 0.00839616 0.00639782 0.00749703 0.00639803 0.00749718 0.00639758 0.00749699 0.00639782 0.00749703 0.00989661 0.00989661 0.00999657 0.00999659 0.00989668 0.00989661 0.00999663 0.00999657 0.00959685 0.00959674 0.00989668 0.00989661 0.00959674 0.0095967 0.00989661 0.00989661 0.00749804 0.00749808 0.00839767 0.00839766 0.00749799 0.00749804 0.00839766 0.00839767 0.00639837 0.00639844 0.00749799 0.00749804 0.00639844 0.00639852 0.00749804 0.00749808 0.00189546 0.00359505 0.00189719 0.00359608 0 0.00189546 0 0.00189719 0 0.0018927 0 0.00189546 0.0018927 0.00359321 0.00189546 0.00359505 0.00639651 0.00639698 0.00509692 0.00509708 0.00639698 0.00639696 0.00509708 0.00509747 0.00509708 0.00509747 0.00359779 0.0035981 0.00509692 0.00509708 0.00359742 0.00359779 0.00959558 0.00989555 0.00959607 0.00989565 0.00959594 0.00989539 0.00959558 0.00989555 0.00989539 0.00999529 0.00989555 0.00999539 0.00989555 0.00999539 0.00989565 0.00999553 0.0018994 0.00189934 0 0 0.00359878 0.00359868 0.0018994 0.00189934 0.00359868 0.00359855 0.00189934 0.00189926 0.00189934 0.00189926 0 0 0.00509615 0.00509601 0.00359505 0.00359608 0.00509857 0.00509615 0.00359321 0.00359505 0.00640082 0.0063944 0.00509857 0.00509615 0.0063944 0.00639911 0.00509615 0.00509601 0.00909725 0.00909719 0.00839743 0.00839738 0.00909729 0.00909725 0.00839748 0.00839743 0.00959718 0.00959714 0.00909729 0.00909725 0.00959714 0.00959709 0.00909725 0.00909719 0.00639806 0.00510216 0.00640566 0.00510072 0.00639862 0.00639852 0.00509905 0.00509894 0.00509905 0.00509894 0.00359942 0.00359933 0.00509922 0.00509905 0.00359954 0.00359942 0.00639873 0.00639862 0.00509922 0.00509905 0.00839581 0.00839627 0.00909596 0.00909598 0.00839627 0.00839585 0.00909598 0.00909581 0.00909598 0.00909581 0.00959576 0.0095957 0.00909596 0.00909598 0.00959594 0.00959576 0.00989711 0.00999704 0.00989702 0.00999695 0.00989702 0.00999695 0.00989691 0.00999685 0.00959718 0.00989702 0.00959708 0.00989691 0.00959726 0.00989711 0.00959718 0.00989702 0.00639747 0.00509825 0.00639747 0.00509813 0.00639758 0.00509864 0.00639747 0.00509825 0.00509864 0.0035989 0.00509825 0.00359897 0.00509825 0.00359897 0.00509813 0.00359879 0.00509978 0.00639925 0.00509952 0.00639909 0.00360003 0.00509978 0.00359981 0.00509952 0.00359974 0.00509958 0.00360003 0.00509978 0.00509958 0.00639915 0.00509978 0.00639925 0.00909596 0.00959594 0.00909881 0.00959558 0.00909881 0.00959558 0.0090944 0.00959607 0.00839581 0.00909596 0.00840037 0.00909881 0.00359878 0.00509812 0.00359868 0.00509805 0.00509812 0.00639747 0.00509805 0.00639744 0.00509805 0.00639744 0.00509791 0.00639733 0.00359868 0.00509805 0.00359855 0.00509791 0.00839562 0.00839603 0.00749637 0.00749645 0.00749637 0.00749645 0.00639708 0.00639696 0.00749642 0.00749637 0.00639733 0.00639708 0.00839525 0.00839562 0.00749642 0.00749637 0 0 0.00189933 0.00189934 0 0 0.00189934 0.00189935 0.00189934 0.00189935 0.00359876 0.00359878 0.00189933 0.00189934 0.00359874 0.00359876 0.00359837 0.0035981 0.00189914 0.00189897 0.00189914 0.00189897 0 0 0.00189926 0.00189914 0 0 0.00359855 0.00359837 0.00189926 0.00189914 0.00959503 0.00989503 0.00959496 0.00989488 0.00989503 0.00999513 0.00989488 0.00999499 0.00989488 0.00999499 0.00989481 0.00999487 0.00959496 0.00989488 0.00959484 0.00989481 0.00959742 0.00989727 0.00959738 0.00989723 0.00959744 0.00989729 0.00959742 0.00989727 0.00989729 0.0099972 0.00989727 0.00999718 0.00989727 0.00999718 0.00989723 0.00999715 0.00839545 0.00839483 0.00909575 0.00909632 0.00909575 0.00909632 0.00959577 0.00959569 0.00909581 0.00909575 0.0095957 0.00959577 0.00839585 0.00839545 0.00909581 0.00909575 0 0.00188616 0 0.0018927 0 0.0019 0 0.00188616 0.0019 0.0036 0.00188616 0.00359591 0.00188616 0.00359591 0.0018927 0.00359321 0.00959567 0.00989567 0.0095956 0.00989535 0.00959572 0.0098957 0.00959567 0.00989567 0.0098957 0.00999584 0.00989567 0.00999584 0.00989567 0.00999584 0.00989535 0.00999569 0.00359855 0.00509791 0.00359837 0.00509771 0.00509791 0.00639733 0.00509771 0.00639708 0.00509771 0.00639708 0.00509747 0.00639696 0.00359837 0.00509771 0.0035981 0.00509747 0.00959571 0.0095957 0.00989522 0.00989536 0.0095957 0.00959568 0.00989536 0.00989541 0.00989536 0.00989541 0.0099947 0.00999543 0.00989522 0.00989536 0.00999459 0.0099947 0.00839814 0.00839802 0.0074956 0.00750098 0.00839802 0.00839844 0.00750098 0.00749884 0.00750098 0.00749884 0.0064014 0.00639695 0.00959674 0.00909703 0.0095967 0.00909684 0.00959685 0.00909715 0.00959674 0.00909703 0.00909715 0.00839758 0.00909703 0.00839751 0.00909703 0.00839751 0.00909684 0.00839746 0.0095968 0.00909704 0.009597 0.00909636 0.0095969 0.00909706 0.0095968 0.00909704 0.00909706 0.00839751 0.00909704 0.00839631 0.00909704 0.00839631 0.00909636 0.00839837 0.0095967 0.00909648 0.00959693 0.00909659 0.0095969 0.0090961 0.0095967 0.00909648 0.0090961 0.00839803 0.00909648 0.00839554 0.00909648 0.00839554 0.00909659 0.00839588 0.00959693 0.00989692 0.00959687 0.00989698 0.00959691 0.00989683 0.00959693 0.00989692 0.00989683 0.0099968 0.00989692 0.00999691 0.00989692 0.00999691 0.00989698 0.00999701 0.00509853 0.00359897 0.00509858 0.00359901 0.00509858 0.00359901 0.00509863 0.00359905 0.0063982 0.00509858 0.00639825 0.00509863 0.00639815 0.00509853 0.0063982 0.00509858 0.00959722 0.0090974 0.00959718 0.00909738 0.00959724 0.0090974 0.00959722 0.0090974 0.0090974 0.00839762 0.0090974 0.00839765 0.0090974 0.00839765 0.00909738 0.00839766 0.00639811 0.00509849 0.00639815 0.00509853 0.00639806 0.00509845 0.00639811 0.00509849 0.00509845 0.0035989 0.00509849 0.00359893 0.00509849 0.00359893 0.00509853 0.00359897 0.00989524 0.00989526 0.00999512 0.00999522 0.00989535 0.00989524 0.00999539 0.00999512 0.00959555 0.00959536 0.00989535 0.00989524 0.00959536 0.00959556 0.00989524 0.00989526 0.00360215 0.00359766 0.00509833 0.00509896 0.00509833 0.00509896 0.00639782 0.00639803 0.00509863 0.00509833 0.00639757 0.00639782 0.00359889 0.00360215 0.00509863 0.00509833 0.00959456 0.00909699 0.00959902 0.00909901 0.00909699 0.00839724 0.00909901 0.00839672 0.00909901 0.00839672 0.0090943 0.00839702 0.00189846 0.00190233 0 0 0.0036065 0.00359974 0.00190233 0.00189976 0.00190233 0.00189976 0 0 0.00359896 0.00359878 0.00189956 0.0018994 0.00189956 0.0018994 0 0 0.00189941 0.00189956 0 0 0.00359889 0.00359896 0.00189941 0.00189956 0.00639862 0.00749812 0.00639852 0.00749808 0.00639873 0.00749818 0.00639862 0.00749812 0.00749818 0.00839758 0.00749812 0.00839765 0.00749812 0.00839765 0.00749808 0.00839766 0.00509922 0.00359954 0.00509915 0.00359943 0.00509915 0.00359943 0.00510216 0.00360191 0.00639916 0.00509915 0.00639806 0.00510216 0.00639873 0.00509922 0.00639916 0.00509915 0.00750042 0.00749609 0.00839715 0.00839751 0.00749804 0.00750042 0.00839746 0.00839715 0.00639806 0.00640566 0.00749804 0.00750042 0.00749774 0.00839748 0.00749769 0.00839743 0.00749769 0.00839743 0.00749764 0.00839738 0.00639801 0.00749769 0.00639797 0.00749764 0.00639806 0.00749774 0.00639801 0.00749769 0.00639792 0.00509833 0.00639797 0.00509837 0.00639788 0.00509829 0.00639792 0.00509833 0.00509829 0.00359878 0.00509833 0.00359881 0.00509833 0.00359881 0.00509837 0.00359884 0.00909534 0.00839575 0.00909543 0.00839556 0.009595 0.00909534 0.00959484 0.00909543 0.00959499 0.00909533 0.009595 0.00909534 0.00909533 0.00839573 0.00909534 0.00839575 0.00359742 0.00359779 0.00509692 0.00509708 0.00359779 0.0035981 0.00509708 0.00509747 0.00509708 0.00509747 0.00639698 0.00639696 0.00509692 0.00509708 0.00639651 0.00639698 0.001898 0.00189719 0.00359679 0.00359608 0.00189845 0.001898 0.00359742 0.00359679 0 0 0.00189845 0.001898 0 0 0.001898 0.00189719 0.00359505 0.00359608 0.00509615 0.00509601 0.00509615 0.00509601 0.00639439 0.00639911 0.00509857 0.00509615 0.00640082 0.00639439 0.00359321 0.00359505 0.00509857 0.00509615 0.0083979 0.00909763 0.00839787 0.00909759 0.00839793 0.00909766 0.0083979 0.00909763 0.00909766 0.00959744 0.00909763 0.00959742 0.00909763 0.00959742 0.00909759 0.00959738 0.00959616 0.00989592 0.00959603 0.00989575 0.00959629 0.0098961 0.00959616 0.00989592 0.0098961 0.00999592 0.00989592 0.00999561 0.00989592 0.00999561 0.00989575 0.00999548 0.00959664 0.0098966 0.00959658 0.00989654 0.0098966 0.00999667 0.00989654 0.00999661 0.00989654 0.00999661 0.00989646 0.00999655 0.00959658 0.00989654 0.00959653 0.00989646 0.00839632 0.00749698 0.00839622 0.00749702 0.00749698 0.00639757 0.00749702 0.00639782 0.00749702 0.00639782 0.00749717 0.00639803 0.00839622 0.00749702 0.00839615 0.00749717 0.00909719 0.00910026 0.00959736 0.00959686 0.00909794 0.00909719 0.00959723 0.00959736 0.00839814 0.00839957 0.00909794 0.00909719 0.00839957 0.00839936 0.00909719 0.00910026 0.00989536 0.00999539 0.00989536 0.00999539 0.00989536 0.00999539 0.00989534 0.00999539 0.00959543 0.00989536 0.0095954 0.00989534 0.00959546 0.00989536 0.00959543 0.00989536 0.0090959 0.00909588 0.00839624 0.00839626 0.00909592 0.0090959 0.00839624 0.00839624 0.00959572 0.00959567 0.00909592 0.0090959 0.00959567 0.0095956 0.0090959 0.00909588 0.00909609 0.0083965 0.00909605 0.00839644 0.00909605 0.00839644 0.00909599 0.00839637 0.0095957 0.00909605 0.00959568 0.00909599 0.00959571 0.00909609 0.0095957 0.00909605 0.00909594 0.00909593 0.00839628 0.00839626 0.00909596 0.00909594 0.0083963 0.00839628 0.0095957 0.0095957 0.00909596 0.00909594 0.0095957 0.00959569 0.00909594 0.00909593 0.00359742 0.00189845 0.00359779 0.00189876 0.00189845 0 0.00189876 0 0.00189876 0 0.00189897 0 0.00359779 0.00189876 0.0035981 0.00189897 0.00639806 0.00639811 0.00749774 0.00749778 0.00639811 0.00639815 0.00749778 0.00749783 0.00749778 0.00749783 0.00839753 0.00839756 0.00749774 0.00749778 0.00839748 0.00839753 0.00639758 0.00639747 0.00749699 0.00749709 0.00639747 0.00639747 0.00749709 0.00749668 0.00749709 0.00749668 0.00839627 0.0083991 0.00749699 0.00749709 0.00839633 0.00839627 0.00749936 0.00749444 0.00639651 0.00639675 0.00749444 0.00749975 0.00639675 0.00639911 0.00909524 0.00839459 0.00909615 0.00839434 0.00909615 0.00839434 0.00909571 0.00839944 0.00959563 0.00909615 0.00959555 0.00909571 0.00959552 0.00909524 0.00959563 0.00909615 0.00749627 0.00749556 0.00839575 0.00839556 0.00749615 0.00749627 0.00839573 0.00839575 0 0 0.00189801 0.00189813 0 0 0.00189813 0.00189823 0.00749642 0.00749638 0.00839526 0.00839562 0.00639733 0.00639708 0.00749642 0.00749638 0.00639708 0.00639696 0.00749638 0.00749646 0.00749638 0.00749646 0.00839562 0.00839603 0.00749712 0.00749704 0.00839705 0.00839724 0.00749905 0.00749712 0.00839628 0.00839705 0.00639979 0.00639488 0.00749905 0.00749712 0.00639488 0.00640013 0.00749712 0.00749704 0.00749816 0.00749817 0.00639856 0.00639861 0.00749815 0.00749816 0.00639853 0.00639856 0.0083978 0.00839777 0.00749815 0.00749816 0.00839777 0.00839773 0.00749816 0.00749817 0 0 0.00189849 0.00189855 0 0 0.00189855 0.0018986 0.00909677 0.00909673 0.008397 0.00839697 0.00959664 0.00959658 0.00909677 0.00909673 0.00959658 0.00959653 0.00909673 0.0090967 0.00909673 0.0090967 0.00839697 0.00839694 0.00839634 0.00909688 0.00839566 0.0090967 0.00839742 0.00909702 0.00839634 0.00909688 0.00909702 0.00959691 0.00909688 0.00959693 0.00909688 0.00959693 0.0090967 0.00959687 0 0 0.00189867 0.00189872 0 0 0.00189872 0.00189873 0.00749638 0.00639698 0.00749645 0.00639696 0.00839562 0.00749638 0.00839603 0.00749645 0.0084003 0.00749936 0.00839562 0.00749638 0.00749936 0.00639651 0.00749638 0.00639698 0.00989699 0.00989689 0.00999695 0.00999685 0.00989706 0.00989699 0.00999704 0.00999695 0.00959718 0.00959713 0.00989706 0.00989699 0.00959713 0.00959705 0.00989699 0.00989689 0.00189919 0 0.00189922 0 0.00189922 0 0.00189921 0 0.00189921 0 0.00189916 0 0.00189916 0 0.00189912 0 0.00640013 0.005101 0.006398 0.00509608 0.006398 0.00509608 0.00639782 0.00510118 0.0074982 0.00749817 0.00639853 0.00639851 0.00749823 0.0074982 0.00639856 0.00639853 0.00839793 0.0083979 0.00749823 0.0074982 0.0083979 0.00839787 0.0074982 0.00749817 0.00189956 0.0018994 0.00359897 0.00359879 0.00189941 0.00189956 0.0035989 0.00359897 0 0 0.00189941 0.00189956 0 0 0.00189956 0.0018994 0.00639782 0.00639803 0.00509834 0.00509896 0.00509834 0.00509896 0.00360216 0.00359766 0.00509864 0.00509834 0.0035989 0.00360216 0.00639758 0.00639782 0.00509864 0.00509834 0.00749728 0.00839625 0.00749749 0.00839702 0.00639829 0.00749728 0.00639782 0.00749749 0.00639803 0.00749718 0.00639829 0.00749728 0.00749718 0.00839616 0.00749728 0.00839625 0.00509869 0.0035991 0.00509876 0.00359916 0.0063983 0.00509869 0.00639837 0.00509876 0.00639825 0.00509863 0.0063983 0.00509869 0.00509863 0.00359905 0.00509869 0.0035991 0.0063983 0.00639837 0.00749795 0.00749799 0.00749795 0.00749799 0.00839765 0.00839766 0.00749791 0.00749795 0.00839762 0.00839765 0.00639825 0.0063983 0.00749791 0.00749795 0.00909668 0.00909659 0.0083966 0.00839588 0.00909674 0.00909668 0.00839628 0.0083966 0.00959682 0.00959703 0.00909674 0.00909668 0.00959703 0.00959693 0.00909668 0.00909659 0.00909463 0.0090947 0.00839444 0.00839417 0.00959487 0.00959502 0.00909463 0.0090947 0.00959502 0.00959503 0.0090947 0.00909538 0.0090947 0.00909538 0.00839417 0.00839371 0.00959728 0.00989703 0.00959728 0.00989704 0.00959732 0.00989702 0.00959728 0.00989703 0.00989702 0.00999681 0.00989703 0.00999685 0.00989703 0.00999685 0.00989704 0.00999689 0.00359679 0.00359608 0.001898 0.00189719 0.001898 0.00189719 0 0 0.00189845 0.001898 0 0 0.00359742 0.00359679 0.00189845 0.001898 0.00909738 0.00839766 0.00909736 0.00839767 0.00909736 0.00839767 0.00909731 0.00839766 0.00959713 0.00909736 0.00959705 0.00909731 0.00959718 0.00909738 0.00959713 0.00909736 0.00909724 0.00909731 0.00839765 0.00839766 0.00909715 0.00909724 0.00839758 0.00839765 0.00959685 0.00959696 0.00909715 0.00909724 0.00959696 0.00959705 0.00909724 0.00909731 0.00509884 0.00359924 0.00509894 0.00359933 0.00639844 0.00509884 0.00639852 0.00509894 0.00639837 0.00509876 0.00639844 0.00509884 0.00509876 0.00359916 0.00509884 0.00359924 0.00749514 0.00749924 0.00839631 0.00839837 0.00749609 0.00749514 0.00839751 0.00839631 0.00909684 0.00839746 0.00909698 0.00839715 0.00909698 0.00839715 0.00909706 0.00839751 0.00959677 0.00909698 0.0095969 0.00909706 0.0095967 0.00909684 0.00959677 0.00909698 0.00639873 0.00639916 0.00749818 0.00749806 0.00639916 0.00639806 0.00749806 0.00749804 0.00749806 0.00749804 0.00839751 0.00839746 0.00749818 0.00749806 0.00839758 0.00839751 0.00749471 0.0074951 0.00839554 0.00839588 0.00749908 0.00749471 0.00839803 0.00839554 0.00909636 0.00839837 0.00909727 0.00839319 0.00909727 0.00839319 0.0090961 0.00839803 0.00959699 0.00909727 0.0095969 0.0090961 0.009597 0.00909636 0.00959699 0.00909727 0.00509896 0.00509829 0.00359766 0.0035978 0.00639803 0.00639829 0.00509896 0.00509829 0.00639829 0.00639782 0.00509829 0.00510118 0.00509829 0.00510118 0.0035978 0.00360254 0.00189912 0 0.00189915 0 0.00189915 0 0.00189919 0 0.00509772 0.00359837 0.00509747 0.0035981 0.00639708 0.00509772 0.00639696 0.00509747 0.00639733 0.00509791 0.00639708 0.00509772 0.00509791 0.00359856 0.00509772 0.00359837 0.00639651 0.00639675 0.00749936 0.00749444 0.00639675 0.00639911 0.00749444 0.00749976 0.00909674 0.00839628 0.00909648 0.00839705 0.00909648 0.00839705 0.00909699 0.00839724 0.00959944 0.00909648 0.00959456 0.00909699 0.00959682 0.00909674 0.00959944 0.00909648 0.0063982 0.00639825 0.00749787 0.00749791 0.00749787 0.00749791 0.0083976 0.00839762 0.00749783 0.00749787 0.00839756 0.0083976 0.00639815 0.0063982 0.00749783 0.00749787 0.00909736 0.00839756 0.00909739 0.0083976 0.00909739 0.0083976 0.0090974 0.00839762 0.00959724 0.00909739 0.00959724 0.0090974 0.00959724 0.00909736 0.00959724 0.00909739 0.00189912 0.00189911 0 0 0.00189912 0.00189912 0 0 0.00639718 0.00749667 0.00639721 0.0074967 0.00639716 0.00749666 0.00639718 0.00749667 0.00749666 0.00839624 0.00749667 0.00839624 0.00749667 0.00839624 0.0074967 0.00839626 0.00639745 0.00639739 0.00749695 0.00749689 0.00639739 0.00639732 0.00749689 0.00749682 0.00749689 0.00749682 0.00839644 0.00839637 0.00749695 0.00749689 0.0083965 0.00839644 0.00639747 0.00639744 0.00749668 0.0074971 0.00639744 0.00639733 0.0074971 0.00749642 0.0074971 0.00749642 0.00839467 0.00839526 0.00749668 0.0074971 0.0083991 0.00839467 0.00989545 0.00999539 0.0098955 0.00999512 0.0098955 0.00999512 0.00989508 0.00999522 0.00959534 0.0098955 0.00959816 0.00989508 0.00959544 0.00989545 0.00959534 0.0098955 0.0090944 0.00959607 0.00909496 0.00959544 0.00909496 0.00959544 0.00909544 0.00959544 0.00909616 0.00909619 0.00839668 0.00839676 0.00909611 0.00909616 0.0