# vtk DataFile Version 3.0
#This file was generated by the deal.II library on 2020/11/19 at 17:08:50
ASCII
DATASET UNSTRUCTURED_GRID

POINTS 8000 double
0.01 0.03 0
0.01 0.02 0
0.02 0.03 0
0.02 0.02 0
0.01 0.04 0
0.01 0.03 0
0.02 0.04 0
0.02 0.03 0
0 0.04 0
0 0.03 0
0.01 0.04 0
0.01 0.03 0
0 0.03 0
0 0.02 0
0.01 0.03 0
0.01 0.02 0
0.75 0.09 0
0.76 0.09 0
0.75 0.1 0
0.76 0.1 0
0.74 0.09 0
0.75 0.09 0
0.74 0.1 0
0.75 0.1 0
0.74 0.08 0
0.75 0.08 0
0.74 0.09 0
0.75 0.09 0
0.75 0.08 0
0.76 0.08 0
0.75 0.09 0
0.76 0.09 0
0.59 0.09 0
0.6 0.09 0
0.59 0.1 0
0.6 0.1 0
0.58 0.09 0
0.59 0.09 0
0.58 0.1 0
0.59 0.1 0
0.58 0.08 0
0.59 0.08 0
0.58 0.09 0
0.59 0.09 0
0.59 0.08 0
0.6 0.08 0
0.59 0.09 0
0.6 0.09 0
0.69 0.09 0
0.7 0.09 0
0.69 0.1 0
0.7 0.1 0
0.68 0.09 0
0.69 0.09 0
0.68 0.1 0
0.69 0.1 0
0.68 0.08 0
0.69 0.08 0
0.68 0.09 0
0.69 0.09 0
0.69 0.08 0
0.7 0.08 0
0.69 0.09 0
0.7 0.09 0
0.71 0.09 0
0.72 0.09 0
0.71 0.1 0
0.72 0.1 0
0.7 0.09 0
0.71 0.09 0
0.7 0.1 0
0.71 0.1 0
0.7 0.08 0
0.71 0.08 0
0.7 0.09 0
0.71 0.09 0
0.71 0.08 0
0.72 0.08 0
0.71 0.09 0
0.72 0.09 0
0.65 0.11 0
0.64 0.11 0
0.65 0.1 0
0.64 0.1 0
0.66 0.11 0
0.65 0.11 0
0.66 0.1 0
0.65 0.1 0
0.66 0.12 0
0.65 0.12 0
0.66 0.11 0
0.65 0.11 0
0.65 0.12 0
0.64 0.12 0
0.65 0.11 0
0.64 0.11 0
0.79 0.09 0
0.8 0.09 0
0.79 0.1 0
0.8 0.1 0
0.78 0.09 0
0.79 0.09 0
0.78 0.1 0
0.79 0.1 0
0.78 0.08 0
0.79 0.08 0
0.78 0.09 0
0.79 0.09 0
0.79 0.08 0
0.8 0.08 0
0.79 0.09 0
0.8 0.09 0
0.77 0.08 0
0.77 0.09 0
0.76 0.08 0
0.76 0.09 0
0.78 0.08 0
0.78 0.09 0
0.77 0.08 0
0.77 0.09 0
0.78 0.09 0
0.78 0.1 0
0.77 0.09 0
0.77 0.1 0
0.77 0.09 0
0.77 0.1 0
0.76 0.09 0
0.76 0.1 0
0.73 0.09 0
0.74 0.09 0
0.73 0.1 0
0.74 0.1 0
0.72 0.09 0
0.73 0.09 0
0.72 0.1 0
0.73 0.1 0
0.72 0.08 0
0.73 0.08 0
0.72 0.09 0
0.73 0.09 0
0.73 0.08 0
0.74 0.08 0
0.73 0.09 0
0.74 0.09 0
0.66 0.09 0
0.66 0.1 0
0.65 0.09 0
0.65 0.1 0
0.65 0.09 0
0.65 0.1 0
0.64 0.09 0
0.64 0.1 0
0.65 0.08 0
0.65 0.09 0
0.64 0.08 0
0.64 0.09 0
0.66 0.08 0
0.66 0.09 0
0.65 0.08 0
0.65 0.09 0
0.81 0.09 0
0.82 0.09 0
0.81 0.1 0
0.82 0.1 0
0.8 0.09 0
0.81 0.09 0
0.8 0.1 0
0.81 0.1 0
0.8 0.08 0
0.81 0.08 0
0.8 0.09 0
0.81 0.09 0
0.81 0.08 0
0.82 0.08 0
0.81 0.09 0
0.82 0.09 0
0.61 0.12 0
0.61 0.11 0
0.62 0.12 0
0.62 0.11 0
0.6 0.12 0
0.6 0.11 0
0.61 0.12 0
0.61 0.11 0
0.6 0.11 0
0.6 0.1 0
0.61 0.11 0
0.61 0.1 0
0.61 0.11 0
0.61 0.1 0
0.62 0.11 0
0.62 0.1 0
0.55 0.08 0
0.55 0.09 0
0.54 0.08 0
0.54 0.09 0
0.56 0.08 0
0.56 0.09 0
0.55 0.08 0
0.55 0.09 0
0.56 0.09 0
0.56 0.1 0
0.55 0.09 0
0.55 0.1 0
0.55 0.09 0
0.55 0.1 0
0.54 0.09 0
0.54 0.1 0
0.57 0.09 0
0.58 0.09 0
0.57 0.1 0
0.58 0.1 0
0.56 0.09 0
0.57 0.09 0
0.56 0.1 0
0.57 0.1 0
0.56 0.08 0
0.57 0.08 0
0.56 0.09 0
0.57 0.09 0
0.57 0.08 0
0.58 0.08 0
0.57 0.09 0
0.58 0.09 0
0.93 0.05 0
0.93 0.06 0
0.92 0.05 0
0.92 0.06 0
0.93 0.04 0
0.93 0.05 0
0.92 0.04 0
0.92 0.05 0
0.94 0.04 0
0.94 0.05 0
0.93 0.04 0
0.93 0.05 0
0.94 0.05 0
0.94 0.06 0
0.93 0.05 0
0.93 0.06 0
0.53 0.09 0
0.54 0.09 0
0.53 0.1 0
0.54 0.1 0
0.52 0.09 0
0.53 0.09 0
0.52 0.1 0
0.53 0.1 0
0.52 0.08 0
0.53 0.08 0
0.52 0.09 0
0.53 0.09 0
0.53 0.08 0
0.54 0.08 0
0.53 0.09 0
0.54 0.09 0
0.51 0.09 0
0.52 0.09 0
0.51 0.1 0
0.52 0.1 0
0.5 0.09 0
0.51 0.09 0
0.5 0.1 0
0.51 0.1 0
0.5 0.08 0
0.51 0.08 0
0.5 0.09 0
0.51 0.09 0
0.51 0.08 0
0.52 0.08 0
0.51 0.09 0
0.52 0.09 0
0.6 0.09 0
0.61 0.09 0
0.6 0.1 0
0.61 0.1 0
0.6 0.08 0
0.61 0.08 0
0.6 0.09 0
0.61 0.09 0
0.61 0.08 0
0.62 0.08 0
0.61 0.09 0
0.62 0.09 0
0.61 0.09 0
0.62 0.09 0
0.61 0.1 0
0.62 0.1 0
0.03 0.15 0
0.03 0.16 0
0.02 0.15 0
0.02 0.16 0
0.03 0.14 0
0.03 0.15 0
0.02 0.14 0
0.02 0.15 0
0.04 0.14 0
0.04 0.15 0
0.03 0.14 0
0.03 0.15 0
0.04 0.15 0
0.04 0.16 0
0.03 0.15 0
0.03 0.16 0
0.03 0.04 0
0.03 0.05 0
0.02 0.04 0
0.02 0.05 0
0.04 0.04 0
0.04 0.05 0
0.03 0.04 0
0.03 0.05 0
0.04 0.05 0
0.04 0.06 0
0.03 0.05 0
0.03 0.06 0
0.03 0.05 0
0.03 0.06 0
0.02 0.05 0
0.02 0.06 0
0.05 0.04 0
0.05 0.05 0
0.04 0.04 0
0.04 0.05 0
0.06 0.04 0
0.06 0.05 0
0.05 0.04 0
0.05 0.05 0
0.06 0.05 0
0.06 0.06 0
0.05 0.05 0
0.05 0.06 0
0.05 0.05 0
0.05 0.06 0
0.04 0.05 0
0.04 0.06 0
0.87 0.09 0
0.88 0.09 0
0.87 0.1 0
0.88 0.1 0
0.86 0.09 0
0.87 0.09 0
0.86 0.1 0
0.87 0.1 0
0.86 0.08 0
0.87 0.08 0
0.86 0.09 0
0.87 0.09 0
0.87 0.08 0
0.88 0.08 0
0.87 0.09 0
0.88 0.09 0
0.04 0.17 0
0.03 0.17 0
0.04 0.16 0
0.03 0.16 0
0.04 0.18 0
0.03 0.18 0
0.04 0.17 0
0.03 0.17 0
0.03 0.18 0
0.02 0.18 0
0.03 0.17 0
0.02 0.17 0
0.03 0.17 0
0.02 0.17 0
0.03 0.16 0
0.02 0.16 0
0.07 0.14 0
0.07 0.15 0
0.06 0.14 0
0.06 0.15 0
0.08 0.14 0
0.08 0.15 0
0.07 0.14 0
0.07 0.15 0
0.08 0.15 0
0.08 0.16 0
0.07 0.15 0
0.07 0.16 0
0.07 0.15 0
0.07 0.16 0
0.06 0.15 0
0.06 0.16 0
0.49 0.09 0
0.5 0.09 0
0.49 0.1 0
0.5 0.1 0
0.48 0.09 0
0.49 0.09 0
0.48 0.1 0
0.49 0.1 0
0.48 0.08 0
0.49 0.08 0
0.48 0.09 0
0.49 0.09 0
0.49 0.08 0
0.5 0.08 0
0.49 0.09 0
0.5 0.09 0
0.47 0.19 0
0.48 0.19 0
0.47 0.2 0
0.48 0.2 0
0.46 0.19 0
0.47 0.19 0
0.46 0.2 0
0.47 0.2 0
0.46 0.18 0
0.47 0.18 0
0.46 0.19 0
0.47 0.19 0
0.47 0.18 0
0.48 0.18 0
0.47 0.19 0
0.48 0.19 0
0.85 0.11 0
0.84 0.11 0
0.85 0.1 0
0.84 0.1 0
0.86 0.11 0
0.85 0.11 0
0.86 0.1 0
0.85 0.1 0
0.86 0.12 0
0.85 0.12 0
0.86 0.11 0
0.85 0.11 0
0.85 0.12 0
0.84 0.12 0
0.85 0.11 0
0.84 0.11 0
0.23 0.13 0
0.23 0.12 0
0.24 0.13 0
0.24 0.12 0
0.23 0.14 0
0.23 0.13 0
0.24 0.14 0
0.24 0.13 0
0.22 0.14 0
0.22 0.13 0
0.23 0.14 0
0.23 0.13 0
0.22 0.13 0
0.22 0.12 0
0.23 0.13 0
0.23 0.12 0
0.95 0.17 0
0.95 0.16 0
0.96 0.17 0
0.96 0.16 0
0.95 0.18 0
0.95 0.17 0
0.96 0.18 0
0.96 0.17 0
0.94 0.18 0
0.94 0.17 0
0.95 0.18 0
0.95 0.17 0
0.94 0.17 0
0.94 0.16 0
0.95 0.17 0
0.95 0.16 0
0.77 0.05 0
0.77 0.06 0
0.76 0.05 0
0.76 0.06 0
0.77 0.04 0
0.77 0.05 0
0.76 0.04 0
0.76 0.05 0
0.78 0.04 0
0.78 0.05 0
0.77 0.04 0
0.77 0.05 0
0.78 0.05 0
0.78 0.06 0
0.77 0.05 0
0.77 0.06 0
0.86 0.05 0
0.86 0.06 0
0.85 0.05 0
0.85 0.06 0
0.85 0.05 0
0.85 0.06 0
0.84 0.05 0
0.84 0.06 0
0.85 0.04 0
0.85 0.05 0
0.84 0.04 0
0.84 0.05 0
0.86 0.04 0
0.86 0.05 0
0.85 0.04 0
0.85 0.05 0
0.67 0.09 0
0.68 0.09 0
0.67 0.1 0
0.68 0.1 0
0.66 0.09 0
0.67 0.09 0
0.66 0.1 0
0.67 0.1 0
0.66 0.08 0
0.67 0.08 0
0.66 0.09 0
0.67 0.09 0
0.67 0.08 0
0.68 0.08 0
0.67 0.09 0
0.68 0.09 0
0.63 0.05 0
0.64 0.05 0
0.63 0.06 0
0.64 0.06 0
0.62 0.05 0
0.63 0.05 0
0.62 0.06 0
0.63 0.06 0
0.62 0.04 0
0.63 0.04 0
0.62 0.05 0
0.63 0.05 0
0.63 0.04 0
0.64 0.04 0
0.63 0.05 0
0.64 0.05 0
0.97 0.01 0
0.97 0.02 0
0.96 0.01 0
0.96 0.02 0
0.97 0 0
0.97 0.01 0
0.96 0 0
0.96 0.01 0
0.98 0 0
0.98 0.01 0
0.97 0 0
0.97 0.01 0
0.98 0.01 0
0.98 0.02 0
0.97 0.01 0
0.97 0.02 0
0.94 0.04 0
0.93 0.04 0
0.94 0.03 0
0.93 0.03 0
0.93 0.04 0
0.92 0.04 0
0.93 0.03 0
0.92 0.03 0
0.93 0.03 0
0.92 0.03 0
0.93 0.02 0
0.92 0.02 0
0.94 0.03 0
0.93 0.03 0
0.94 0.02 0
0.93 0.02 0
0.21 0.14 0
0.21 0.15 0
0.2 0.14 0
0.2 0.15 0
0.22 0.14 0
0.22 0.15 0
0.21 0.14 0
0.21 0.15 0
0.22 0.15 0
0.22 0.16 0
0.21 0.15 0
0.21 0.16 0
0.21 0.15 0
0.21 0.16 0
0.2 0.15 0
0.2 0.16 0
0.89 0.09 0
0.9 0.09 0
0.89 0.1 0
0.9 0.1 0
0.88 0.09 0
0.89 0.09 0
0.88 0.1 0
0.89 0.1 0
0.88 0.08 0
0.89 0.08 0
0.88 0.09 0
0.89 0.09 0
0.89 0.08 0
0.9 0.08 0
0.89 0.09 0
0.9 0.09 0
0.29 0.14 0
0.3 0.14 0
0.29 0.15 0
0.3 0.15 0
0.29 0.15 0
0.3 0.15 0
0.29 0.16 0
0.3 0.16 0
0.28 0.15 0
0.29 0.15 0
0.28 0.16 0
0.29 0.16 0
0.28 0.14 0
0.29 0.14 0
0.28 0.15 0
0.29 0.15 0
0.25 0.14 0
0.25 0.15 0
0.24 0.14 0
0.24 0.15 0
0.26 0.14 0
0.26 0.15 0
0.25 0.14 0
0.25 0.15 0
0.26 0.15 0
0.26 0.16 0
0.25 0.15 0
0.25 0.16 0
0.25 0.15 0
0.25 0.16 0
0.24 0.15 0
0.24 0.16 0
0.08 0.17 0
0.07 0.17 0
0.08 0.16 0
0.07 0.16 0
0.08 0.18 0
0.07 0.18 0
0.08 0.17 0
0.07 0.17 0
0.07 0.18 0
0.06 0.18 0
0.07 0.17 0
0.06 0.17 0
0.07 0.17 0
0.06 0.17 0
0.07 0.16 0
0.06 0.16 0
0.09 0.12 0
0.09 0.11 0
0.1 0.12 0
0.1 0.11 0
0.08 0.12 0
0.08 0.11 0
0.09 0.12 0
0.09 0.11 0
0.08 0.11 0
0.08 0.1 0
0.09 0.11 0
0.09 0.1 0
0.09 0.11 0
0.09 0.1 0
0.1 0.11 0
0.1 0.1 0
0.88 0.19 0
0.89 0.19 0
0.88 0.2 0
0.89 0.2 0
0.88 0.18 0
0.89 0.18 0
0.88 0.19 0
0.89 0.19 0
0.89 0.18 0
0.9 0.18 0
0.89 0.19 0
0.9 0.19 0
0.89 0.19 0
0.9 0.19 0
0.89 0.2 0
0.9 0.2 0
0.97 0.03 0
0.96 0.03 0
0.97 0.02 0
0.96 0.02 0
0.98 0.03 0
0.97 0.03 0
0.98 0.02 0
0.97 0.02 0
0.98 0.04 0
0.97 0.04 0
0.98 0.03 0
0.97 0.03 0
0.97 0.04 0
0.96 0.04 0
0.97 0.03 0
0.96 0.03 0
0.94 0.08 0
0.95 0.08 0
0.94 0.09 0
0.95 0.09 0
0.95 0.08 0
0.96 0.08 0
0.95 0.09 0
0.96 0.09 0
0.95 0.09 0
0.96 0.09 0
0.95 0.1 0
0.96 0.1 0
0.94 0.09 0
0.95 0.09 0
0.94 0.1 0
0.95 0.1 0
0.55 0.07 0
0.54 0.07 0
0.55 0.06 0
0.54 0.06 0
0.56 0.07 0
0.55 0.07 0
0.56 0.06 0
0.55 0.06 0
0.56 0.08 0
0.55 0.08 0
0.56 0.07 0
0.55 0.07 0
0.55 0.08 0
0.54 0.08 0
0.55 0.07 0
0.54 0.07 0
0.68 0.04 0
0.68 0.03 0
0.69 0.04 0
0.69 0.03 0
0.68 0.03 0
0.68 0.02 0
0.69 0.03 0
0.69 0.02 0
0.69 0.03 0
0.69 0.02 0
0.7 0.03 0
0.7 0.02 0
0.69 0.04 0
0.69 0.03 0
0.7 0.04 0
0.7 0.03 0
0.65 0.04 0
0.64 0.04 0
0.65 0.03 0
0.64 0.03 0
0.65 0.03 0
0.64 0.03 0
0.65 0.02 0
0.64 0.02 0
0.66 0.03 0
0.65 0.03 0
0.66 0.02 0
0.65 0.02 0
0.66 0.04 0
0.65 0.04 0
0.66 0.03 0
0.65 0.03 0
0.08 0.14 0
0.07 0.14 0
0.08 0.13 0
0.07 0.13 0
0.07 0.14 0
0.06 0.14 0
0.07 0.13 0
0.06 0.13 0
0.07 0.13 0
0.06 0.13 0
0.07 0.12 0
0.06 0.12 0
0.08 0.13 0
0.07 0.13 0
0.08 0.12 0
0.07 0.12 0
0.62 0.11 0
0.62 0.1 0
0.63 0.11 0
0.63 0.1 0
0.63 0.11 0
0.63 0.1 0
0.64 0.11 0
0.64 0.1 0
0.63 0.12 0
0.63 0.11 0
0.64 0.12 0
0.64 0.11 0
0.62 0.12 0
0.62 0.11 0
0.63 0.12 0
0.63 0.11 0
0.87 0.04 0
0.87 0.03 0
0.88 0.04 0
0.88 0.03 0
0.86 0.04 0
0.86 0.03 0
0.87 0.04 0
0.87 0.03 0
0.86 0.03 0
0.86 0.02 0
0.87 0.03 0
0.87 0.02 0
0.87 0.03 0
0.87 0.02 0
0.88 0.03 0
0.88 0.02 0
0.51 0.17 0
0.51 0.16 0
0.52 0.17 0
0.52 0.16 0
0.51 0.18 0
0.51 0.17 0
0.52 0.18 0
0.52 0.17 0
0.5 0.18 0
0.5 0.17 0
0.51 0.18 0
0.51 0.17 0
0.5 0.17 0
0.5 0.16 0
0.51 0.17 0
0.51 0.16 0
0.98 0.13 0
0.97 0.13 0
0.98 0.12 0
0.97 0.12 0
0.98 0.14 0
0.97 0.14 0
0.98 0.13 0
0.97 0.13 0
0.97 0.14 0
0.96 0.14 0
0.97 0.13 0
0.96 0.13 0
0.97 0.13 0
0.96 0.13 0
0.97 0.12 0
0.96 0.12 0
0.08 0.13 0
0.08 0.12 0
0.09 0.13 0
0.09 0.12 0
[...]
POINT_DATA 8000
SCALARS solution_0 double 1
LOOKUP_TABLE default
0.00509101 0.00359367 0.005091 0.00359366 0.0063887 0.00509101 0.0063887 0.005091 0.00638869 0.00509101 0.0063887 0.00509101 0.00509101 0.00359367 0.00509101 0.00359367 0.00988249 0.00988248 0.00998231 0.00998231 0.00988249 0.00988249 0.00998231 0.00998231 0.00958302 0.00958302 0.00988249 0.00988249 0.00958302 0.00958302 0.00988249 0.00988248 0.00988249 0.00988249 0.00998231 0.00998231 0.00988249 0.00988249 0.00998231 0.00998231 0.00958302 0.00958302 0.00988249 0.00988249 0.00958302 0.00958302 0.00988249 0.00988249 0.00988249 0.00988249 0.00998231 0.00998231 0.00988249 0.00988249 0.00998231 0.00998231 0.00958302 0.00958302 0.00988249 0.00988249 0.00958302 0.00958302 0.00988249 0.00988249 0.00988249 0.00988249 0.00998231 0.00998231 0.00988249 0.00988249 0.00998231 0.00998231 0.00958302 0.00958302 0.00988249 0.00988249 0.00958302 0.00958302 0.00988249 0.00988249 0.00988249 0.00988249 0.00998231 0.00998231 0.00988249 0.00988249 0.00998231 0.00998231 0.00958302 0.00958302 0.00988249 0.00988249 0.00958302 0.00958302 0.00988249 0.00988249 0.00988249 0.00988249 0.00998231 0.00998231 0.00988248 0.00988249 0.00998231 0.00998231 0.00958302 0.00958302 0.00988248 0.00988249 0.00958302 0.00958302 0.00988249 0.00988249 0.00958302 0.00988248 0.00958302 0.00988248 0.00958302 0.00988248 0.00958302 0.00988248 0.00988248 0.00998231 0.00988248 0.00998231 0.00988248 0.00998231 0.00988248 0.00998231 0.00988249 0.00988249 0.00998231 0.00998231 0.00988249 0.00988249 0.00998231 0.00998231 0.00958302 0.00958302 0.00988249 0.00988249 0.00958302 0.00958302 0.00988249 0.00988249 0.00988249 0.00998231 0.00988249 0.00998231 0.00988249 0.00998231 0.00988249 0.00998231 0.00958302 0.00988249 0.00958302 0.00988249 0.00958302 0.00988249 0.00958302 0.00988249 0.00988249 0.00988249 0.00998231 0.00998232 0.00988249 0.00988249 0.00998231 0.00998231 0.00958302 0.00958302 0.00988249 0.00988249 0.00958302 0.00958302 0.00988249 0.00988249 0.00958302 0.00988249 0.00958302 0.00988249 0.00958302 0.00988249 0.00958302 0.00988249 0.00988249 0.00998231 0.00988249 0.00998231 0.00988249 0.00998231 0.00988249 0.00998231 0.00958302 0.00988249 0.00958302 0.00988249 0.00958302 0.00988249 0.00958302 0.00988249 0.00988249 0.00998231 0.00988249 0.00998231 0.00988249 0.00998231 0.00988249 0.00998231 0.00988249 0.00988249 0.00998231 0.00998231 0.00988249 0.00988249 0.00998231 0.00998231 0.00958302 0.00958302 0.00988249 0.00988249 0.00958302 0.00958302 0.00988249 0.00988249 0.00748632 0.0083853 0.00748641 0.00838521 0.00638779 0.00748632 0.00638804 0.00748641 0.00638749 0.00748625 0.00638779 0.00748632 0.00748625 0.00838545 0.00748632 0.0083853 0.00988249 0.00988249 0.00998231 0.00998231 0.00988249 0.00988249 0.00998231 0.00998231 0.00958302 0.00958302 0.00988249 0.00988249 0.00958302 0.00958302 0.00988249 0.00988249 0.00988249 0.00988249 0.00998231 0.00998231 0.00988249 0.00988249 0.00998231 0.00998231 0.00958302 0.00958302 0.00988249 0.00988249 0.00958302 0.00958302 0.00988249 0.00988249 0.00988249 0.00988249 0.00998231 0.00998231 0.00958302 0.00958302 0.00988249 0.00988249 0.00958302 0.00958302 0.00988249 0.00988249 0.00988249 0.00988249 0.00998231 0.00998231 0.00748674 0.00638869 0.00748674 0.0063887 0.00838514 0.00748674 0.00838513 0.00748674 0.00838514 0.00748674 0.00838514 0.00748674 0.00748674 0.00638869 0.00748674 0.00638869 0.00638869 0.00748674 0.0063887 0.00748674 0.00638869 0.00748674 0.00638869 0.00748674 0.00748674 0.00838514 0.00748674 0.00838513 0.00748674 0.00838513 0.00748674 0.00838513 0.00638869 0.00748674 0.00638869 0.00748674 0.00638868 0.00748673 0.00638869 0.00748674 0.00748673 0.00838514 0.00748674 0.00838514 0.00748674 0.00838514 0.00748674 0.00838514 0.00988262 0.00988269 0.00998245 0.00998254 0.00988257 0.00988262 0.0099824 0.00998245 0.00958308 0.00958311 0.00988257 0.00988262 0.00958311 0.00958317 0.00988262 0.00988269 0.00509099 0.005091 0.00638869 0.00638869 0.00359365 0.00359365 0.00509099 0.005091 0.00359365 0.00359366 0.005091 0.00509101 0.005091 0.00509101 0.00638869 0.0063887 0.00838514 0.00748674 0.00838514 0.00748674 0.00838514 0.00748674 0.00838514 0.00748674 0.00748674 0.00638868 0.00748674 0.00638868 0.00748674 0.00638868 0.00748674 0.00638869 0.00988249 0.00988249 0.00998231 0.00998231 0.00988249 0.00988249 0.00998231 0.00998231 0.00958302 0.00958302 0.00988249 0.00988249 0.00958302 0.00958302 0.00988249 0.00988249 0.00189664 0.00189664 0 0 0.00189664 0.00189664 0 0 0.00359363 0.00359363 0.00189664 0.00189664 0.00359363 0.00359363 0.00189664 0.00189664 0.00988253 0.00988251 0.00998236 0.00998234 0.00988257 0.00988253 0.0099824 0.00998236 0.00958308 0.00958305 0.00988257 0.00988253 0.00958305 0.00958304 0.00988253 0.00988251 0.0090839 0.00958302 0.0090839 0.00958302 0.00838514 0.0090839 0.00838514 0.0090839 0.00838514 0.0090839 0.00838514 0.0090839 0.0090839 0.00958302 0.0090839 0.00958302 0.00508874 0.00638717 0.00508802 0.00638689 0.00359128 0.00508874 0.00359026 0.00508802 0.00359202 0.00508935 0.00359128 0.00508874 0.00508935 0.00638749 0.00508874 0.00638717 0.00748673 0.00838514 0.00748673 0.00838514 0.00638868 0.00748673 0.00638868 0.00748673 0.00638868 0.00748673 0.00638868 0.00748673 0.00748673 0.00838514 0.00748673 0.00838514 0.0074867 0.00838513 0.00748671 0.00838513 0.00748671 0.00838513 0.00748672 0.00838513 0.00638865 0.00748671 0.00638866 0.00748672 0.00638863 0.0074867 0.00638865 0.00748671 0.00988249 0.00988249 0.00998231 0.00998231 0.00988249 0.00988249 0.00998231 0.00998231 0.00958302 0.00958302 0.00988249 0.00988249 0.00958302 0.00958302 0.00988249 0.00988249 0.00748673 0.00748673 0.00838514 0.00838514 0.00748673 0.00748673 0.00838514 0.00838514 0.00638868 0.00638868 0.00748673 0.00748673 0.00638868 0.00638868 0.00748673 0.00748673 0.00189283 0.00358892 0.00189421 0.00359026 0 0.00189283 0 0.00189421 0 0.00189064 0 0.00189283 0.00189064 0.00358749 0.00189283 0.00358892 0.00638749 0.00638779 0.00508935 0.00508983 0.00638779 0.00638804 0.00508983 0.00509019 0.00508983 0.00509019 0.00359255 0.00359291 0.00508935 0.00508983 0.00359202 0.00359255 0.00838514 0.00748673 0.00838514 0.00748673 0.00838514 0.00748673 0.00838514 0.00748673 0.00748673 0.00638868 0.00748673 0.00638868 0.00748673 0.00638868 0.00748673 0.00638868 0.00988281 0.00988297 0.00998266 0.00998283 0.00988269 0.00988281 0.00998254 0.00998266 0.00958317 0.00958326 0.00988269 0.00988281 0.00958326 0.00958339 0.00988281 0.00988297 0.00838514 0.00838514 0.00748673 0.00748673 0.00748673 0.00748673 0.00638868 0.00638868 0.00748673 0.00748673 0.00638868 0.00638868 0.00838514 0.00838514 0.00748673 0.00748673 0.00838514 0.00748673 0.00838514 0.00748673 0.00838514 0.00748673 0.00838514 0.00748673 0.00748673 0.00638868 0.00748673 0.00638868 0.00748673 0.00638868 0.00748673 0.00638868 0.00509098 0.00509098 0.00638868 0.00638868 0.00359364 0.00359364 0.00509098 0.00509098 0.00359364 0.00359364 0.00509098 0.00509099 0.00509098 0.00509099 0.00638868 0.00638869 0.00958302 0.00988248 0.00958302 0.00988248 0.00958301 0.00988248 0.00958302 0.00988248 0.00988248 0.0099823 0.00988248 0.00998231 0.00988248 0.00998231 0.00988248 0.00998231 0.00189658 0.00189653 0 0 0.00359351 0.00359344 0.00189658 0.00189653 0.00359344 0.00359333 0.00189653 0.00189647 0.00189653 0.00189647 0 0 0.00508733 0.00508802 0.00358892 0.00359026 0.0050872 0.00508733 0.00358749 0.00358892 0.00638723 0.00638683 0.0050872 0.00508733 0.00638683 0.00638689 0.00508733 0.00508802 0.00958463 0.00958521 0.00988447 0.00988512 0.00958521 0.00958591 0.00988512 0.00988588 0.00988512 0.00988588 0.0099851 0.00998587 0.00988447 0.00988512 0.00998442 0.0099851 0.0090839 0.0090839 0.00838514 0.00838514 0.0090839 0.0090839 0.00838514 0.00838514 0.00958302 0.00958302 0.0090839 0.0090839 0.00958302 0.00958302 0.0090839 0.0090839 0.00638868 0.00509098 0.00638868 0.00509098 0.00509098 0.00359363 0.00509098 0.00359363 0.00509098 0.00359363 0.00509098 0.00359363 0.00638868 0.00509098 0.00638868 0.00509098 0.00638868 0.00638868 0.00509098 0.00509098 0.00509098 0.00509098 0.00359363 0.00359363 0.00509098 0.00509098 0.00359363 0.00359363 0.00638868 0.00638868 0.00509098 0.00509098 0.00838514 0.00838514 0.0090839 0.0090839 0.00838514 0.00838514 0.0090839 0.0090839 0.0090839 0.0090839 0.00958301 0.00958301 0.0090839 0.0090839 0.00958301 0.00958301 0.00988249 0.00998231 0.00988249 0.00998231 0.00988249 0.00998231 0.00988249 0.00998231 0.00958302 0.00988249 0.00958302 0.00988249 0.00958302 0.00988249 0.00958302 0.00988249 0.00638859 0.00509089 0.00638854 0.00509083 0.00638863 0.00509092 0.00638859 0.00509089 0.00509092 0.00359359 0.00509089 0.00359356 0.00509089 0.00359356 0.00509083 0.00359351 0.00509098 0.00638868 0.00509098 0.00638868 0.00359363 0.00509098 0.00359363 0.00509098 0.00359363 0.00509098 0.00359363 0.00509098 0.00509098 0.00638868 0.00509098 0.00638868 0.00908745 0.00908665 0.00958748 0.00958667 0.0083874 0.00838665 0.00908745 0.00908665 0.00838665 0.0083861 0.00908665 0.00908597 0.00908665 0.00908597 0.00958667 0.00958591 0.0090839 0.00958301 0.0090839 0.00958302 0.0090839 0.00958302 0.0090839 0.00958302 0.00838514 0.0090839 0.00838514 0.0090839 0.00838514 0.0090839 0.00838514 0.0090839 0.00359351 0.00509083 0.00359344 0.00509075 0.00509083 0.00638854 0.00509075 0.00638847 0.00509075 0.00638847 0.00509062 0.00638837 0.00359344 0.00509075 0.00359333 0.00509062 0.00838517 0.00838521 0.00748649 0.00748641 0.00748649 0.00748641 0.00638823 0.00638804 0.00748656 0.00748649 0.00638837 0.00638823 0.00838515 0.00838517 0.00748656 0.00748649 0 0 0.00189664 0.00189664 0 0 0.00189664 0.00189664 0.00189664 0.00189664 0.00359363 0.00359363 0.00189664 0.00189664 0.00359363 0.00359363 0.00359316 0.00359291 0.00189636 0.00189621 0.00189636 0.00189621 0 0 0.00189647 0.00189636 0 0 0.00359333 0.00359316 0.00189647 0.00189636 0.00748673 0.00748673 0.00838514 0.00838514 0.00638868 0.00638868 0.00748673 0.00748673 0.00638868 0.00638868 0.00748673 0.00748673 0.00748673 0.00748673 0.00838514 0.00838514 0.00509098 0.00638868 0.00509098 0.00638868 0.00359363 0.00509098 0.00359363 0.00509098 0.00359363 0.00509098 0.00359363 0.00509098 0.00509098 0.00638868 0.00509098 0.00638868 0.0090839 0.0090839 0.00958302 0.00958302 0.0090839 0.0090839 0.00958302 0.00958302 0.00838514 0.00838514 0.0090839 0.0090839 0.00838514 0.00838514 0.0090839 0.0090839 0.00958339 0.0090841 0.00958357 0.00908421 0.0090841 0.00838515 0.00908421 0.00838517 0.00908421 0.00838517 0.00908438 0.00838521 0.00958357 0.00908421 0.00958383 0.00908438 0.009583 0.00988247 0.009583 0.00988246 0.00988247 0.00998229 0.00988246 0.00998228 0.00988246 0.00998228 0.00988245 0.00998227 0.009583 0.00988246 0.00958299 0.00988245 0.00958302 0.00988249 0.00958302 0.00988249 0.00958302 0.00988249 0.00958302 0.00988249 0.00988249 0.00998231 0.00988249 0.00998231 0.00988249 0.00998231 0.00988249 0.00998231 0.00838514 0.00838514 0.00748673 0.00748673 0.00748673 0.00748673 0.00638868 0.00638868 0.00748673 0.00748673 0.00638868 0.00638868 0.00838514 0.00838514 0.00748673 0.00748673 0.00838514 0.00838514 0.0090839 0.00908389 0.0090839 0.00908389 0.00958301 0.009583 0.0090839 0.0090839 0.00958301 0.00958301 0.00838514 0.00838514 0.0090839 0.0090839 0.00748673 0.00838514 0.00748673 0.00838514 0.00748673 0.00838514 0.00748673 0.00838514 0.00638868 0.00748673 0.00638868 0.00748673 0.00638868 0.00748673 0.00638868 0.00748673 0 0.00188623 0 0.00189064 0 0.0019 0 0.00188623 0.0019 0.0036 0.00188623 0.00358664 0.00188623 0.00358664 0.00189064 0.00358749 0.00958302 0.00988249 0.00958302 0.00988249 0.00958302 0.00988249 0.00958302 0.00988249 0.00988249 0.00998231 0.00988249 0.00998231 0.00988249 0.00998231 0.00988249 0.00998231 0.00359333 0.00509062 0.00359316 0.00509044 0.00509062 0.00638837 0.00509044 0.00638823 0.00509044 0.00638823 0.00509019 0.00638804 0.00359316 0.00509044 0.00359291 0.00509019 0.00958302 0.00958302 0.00988249 0.00988249 0.00958302 0.00958302 0.00988249 0.00988249 0.00988249 0.00988249 0.00998231 0.00998231 0.00988249 0.00988249 0.00998231 0.00998231 0.00838514 0.00838514 0.00748673 0.00748673 0.00838514 0.00838514 0.00748673 0.00748673 0.00748673 0.00748673 0.00638868 0.00638868 0.00748673 0.00748673 0.00638868 0.00638868 0.00958302 0.0090839 0.00958302 0.0090839 0.00958302 0.0090839 0.00958302 0.0090839 0.0090839 0.00838514 0.0090839 0.00838514 0.0090839 0.00838514 0.0090839 0.00838514 0.00958302 0.0090839 0.00958302 0.0090839 0.00958302 0.0090839 0.00958302 0.0090839 0.0090839 0.00838514 0.0090839 0.00838514 0.0090839 0.00838514 0.0090839 0.00838514 0.00958302 0.0090839 0.00958302 0.0090839 0.00958302 0.0090839 0.00958302 0.0090839 0.0090839 0.00838514 0.0090839 0.00838514 0.0090839 0.00838514 0.0090839 0.00838514 0.00958302 0.00988249 0.00958302 0.00988249 0.00958302 0.00988249 0.00958302 0.00988249 0.00988249 0.00998231 0.00988249 0.00998231 0.00988249 0.00998231 0.00988249 0.00998231 0.00509098 0.00359363 0.00509098 0.00359363 0.00509098 0.00359363 0.00509098 0.00359363 0.00638868 0.00509098 0.00638868 0.00509098 0.00638868 0.00509098 0.00638868 0.00509098 0.00958302 0.0090839 0.00958302 0.0090839 0.00958302 0.0090839 0.00958302 0.0090839 0.0090839 0.00838514 0.0090839 0.00838514 0.0090839 0.00838514 0.0090839 0.00838514 0.00638868 0.00509098 0.00638868 0.00509098 0.00638868 0.00509098 0.00638868 0.00509098 0.00509098 0.00359363 0.00509098 0.00359363 0.00509098 0.00359363 0.00509098 0.00359363 0.00988249 0.00988249 0.00998231 0.00998231 0.00988248 0.00988249 0.00998231 0.00998231 0.00958301 0.00958302 0.00988248 0.00988249 0.00958302 0.00958302 0.00988249 0.00988249 0.00359361 0.00359362 0.00509095 0.00509096 0.00509095 0.00509096 0.00638865 0.00638866 0.00509092 0.00509095 0.00638863 0.00638865 0.00359359 0.00359361 0.00509092 0.00509095 0.0098825 0.00998233 0.00988249 0.00998232 0.00958303 0.0098825 0.00958302 0.00988249 0.00958304 0.00988251 0.00958303 0.0098825 0.00988251 0.00998234 0.0098825 0.00998233 0.00509098 0.00509098 0.00638868 0.00638868 0.00509098 0.00509098 0.00638868 0.00638868 0.00359363 0.00359363 0.00509098 0.00509098 0.00359363 0.00359363 0.00509098 0.00509098 0.00958302 0.0090839 0.00958302 0.0090839 0.00958302 0.0090839 0.00958302 0.0090839 0.0090839 0.00838514 0.0090839 0.00838514 0.0090839 0.00838514 0.0090839 0.00838514 0.00189664 0.00189664 0 0 0.00359363 0.00359363 0.00189664 0.00189664 0.00359363 0.00359363 0.00189664 0.00189664 0.00189664 0.00189664 0 0 0.00359356 0.00359351 0.0018966 0.00189658 0.0018966 0.00189658 0 0 0.00189662 0.0018966 0 0 0.00359359 0.00359356 0.00189662 0.0018966 0.00638868 0.00748673 0.00638868 0.00748673 0.00638868 0.00748673 0.00638868 0.00748673 0.00748673 0.00838514 0.00748673 0.00838514 0.00748673 0.00838514 0.00748673 0.00838514 0.00509098 0.00359363 0.00509098 0.00359363 0.00509098 0.00359363 0.00509098 0.00359363 0.00638868 0.00509098 0.00638868 0.00509098 0.00638868 0.00509098 0.00638868 0.00509098 0.00838514 0.00748673 0.00838514 0.00748673 0.00838514 0.00748673 0.00838514 0.00748673 0.00748673 0.00638868 0.00748673 0.00638868 0.00748673 0.00638868 0.00748673 0.00638868 0.00638868 0.00638868 0.00748673 0.00748673 0.00748673 0.00748673 0.00838514 0.00838514 0.00748673 0.00748673 0.00838514 0.00838514 0.00638868 0.00638868 0.00748673 0.00748673 0.00748673 0.00838514 0.00748673 0.00838514 0.00748673 0.00838514 0.00748673 0.00838514 0.00638868 0.00748673 0.00638868 0.00748673 0.00638868 0.00748673 0.00638868 0.00748673 0.00638868 0.00509098 0.00638868 0.00509098 0.00638868 0.00509098 0.00638868 0.00509098 0.00509098 0.00359363 0.00509098 0.00359363 0.00509098 0.00359363 0.00509098 0.00359363 0.00908388 0.00838513 0.00908388 0.00838513 0.00958298 0.00908388 0.00958299 0.00908388 0.00958296 0.00908386 0.00958298 0.00908388 0.00908386 0.00838511 0.00908388 0.00838513 0.00509098 0.00638868 0.00509098 0.00638868 0.00359363 0.00509098 0.00359363 0.00509098 0.00359363 0.00509098 0.00359363 0.00509098 0.00509098 0.00638868 0.00509098 0.00638868 0.00359202 0.00359255 0.00508935 0.00508983 0.00359255 0.00359291 0.00508983 0.00509019 0.00508983 0.00509019 0.00638779 0.00638804 0.00508935 0.00508983 0.00638749 0.00638779 0.00958317 0.00988269 0.00958326 0.00988281 0.00988269 0.00998254 0.00988281 0.00998266 0.00988281 0.00998266 0.00988297 0.00998283 0.00958326 0.00988281 0.00958339 0.00988297 0.00189506 0.00189421 0.00359128 0.00359026 0.00189561 0.00189506 0.00359202 0.00359128 0 0 0.00189561 0.00189506 0 0 0.00189506 0.00189421 0.00838705 0.0083874 0.00908708 0.00908745 0.00908708 0.00908745 0.0095871 0.00958748 0.0091 0.00908708 0.0096 0.0095871 0.0084 0.00838705 0.0091 0.00908708 0.00358892 0.00359026 0.00508733 0.00508802 0.00508733 0.00508802 0.00638683 0.00638689 0.0050872 0.00508733 0.00638723 0.00638683 0.00358749 0.00358892 0.0050872 0.00508733 0.00838514 0.0090839 0.00838514 0.0090839 0.00838514 0.0090839 0.00838514 0.0090839 0.0090839 0.00958302 0.0090839 0.00958302 0.0090839 0.00958302 0.0090839 0.00958302 0.00958302 0.00988249 0.00958302 0.00988249 0.00958302 0.00988249 0.00958302 0.00988249 0.00988249 0.00998231 0.00988249 0.00998231 0.00988249 0.00998231 0.00988249 0.00998231 0.00958302 0.00988249 0.00958302 0.00988249 0.00988249 0.00998231 0.00988249 0.00998231 0.00988249 0.00998231 0.00988249 0.00998231 0.00958302 0.00988249 0.00958302 0.00988249 0.00838514 0.00838514 0.00748673 0.00748673 0.00748673 0.00748673 0.00638868 0.00638868 0.00748673 0.00748673 0.00638868 0.00638868 0.00838514 0.00838514 0.00748673 0.00748673 0.00838513 0.0074867 0.00838513 0.00748671 0.0074867 0.00638863 0.00748671 0.00638865 0.00748671 0.00638865 0.00748672 0.00638866 0.00838513 0.00748671 0.00838513 0.00748672 0.0090839 0.0090839 0.00958302 0.00958302 0.0090839 0.0090839 0.00958302 0.00958302 0.00838514 0.00838514 0.0090839 0.0090839 0.00838514 0.00838514 0.0090839 0.0090839 0.00509098 0.00509098 0.00638868 0.00638868 0.00509098 0.00509098 0.00638868 0.00638868 0.00359363 0.00359363 0.00509098 0.00509098 0.00359363 0.00359363 0.00509098 0.00509098 0.00838514 0.00748673 0.00838514 0.00748673 0.00838514 0.00748673 0.00838514 0.00748673 0.00748673 0.00638868 0.00748673 0.00638868 0.00748673 0.00638868 0.00748673 0.00638868 0.00509098 0.00509098 0.00638868 0.00638868 0.00509098 0.00509098 0.00638868 0.00638868 0.00359363 0.00359363 0.00509098 0.00509098 0.00359363 0.00359363 0.00509098 0.00509098 0.00509098 0.00638868 0.00509098 0.00638868 0.00509098 0.00638868 0.00509098 0.00638868 0.00359363 0.00509098 0.00359363 0.00509098 0.00359363 0.00509098 0.00359363 0.00509098 0.00988249 0.00998231 0.00988249 0.00998231 0.00988249 0.00998231 0.00988249 0.00998231 0.00958302 0.00988249 0.00958302 0.00988249 0.00958302 0.00988249 0.00958302 0.00988249 0.00509098 0.00509098 0.00638868 0.00638868 0.00509098 0.00509098 0.00638868 0.00638868 0.00359363 0.00359363 0.00509098 0.00509098 0.00359363 0.00359363 0.00509098 0.00509098 0.0090839 0.0090839 0.00838514 0.00838514 0.0090839 0.0090839 0.00838514 0.00838514 0.00958302 0.00958302 0.0090839 0.0090839 0.00958302 0.00958302 0.0090839 0.0090839 0.0090839 0.00838514 0.0090839 0.00838514 0.0090839 0.00838514 0.0090839 0.00838514 0.00958302 0.0090839 0.00958302 0.0090839 0.00958302 0.0090839 0.00958302 0.0090839 0.0090839 0.0090839 0.00838514 0.00838514 0.0090839 0.0090839 0.00838514 0.00838514 0.00958302 0.00958302 0.0090839 0.0090839 0.00958302 0.00958302 0.0090839 0.0090839 0.00509098 0.00509098 0.00638868 0.00638868 0.00509098 0.00509098 0.00638868 0.00638868 0.00359363 0.00359363 0.00509098 0.00509098 0.00359363 0.00359363 0.00509098 0.00509098 0.0090839 0.0090839 0.00958302 0.00958302 0.0090839 0.0090839 0.00958302 0.00958302 0.00838514 0.00838514 0.0090839 0.0090839 0.00838514 0.00838514 0.0090839 0.0090839 0.0090839 0.0090839 0.00958302 0.00958302 0.0090839 0.0090839 0.00958302 0.00958302 0.00838514 0.00838514 0.0090839 0.0090839 0.00838514 0.00838514 0.0090839 0.0090839 0.00359202 0.00189561 0.00359255 0.00189597 0.00189561 0 0.00189597 0