# vtk DataFile Version 3.0
#This file was generated by the deal.II library on 2020/11/19 at 17:13:06
ASCII
DATASET UNSTRUCTURED_GRID

POINTS 37472 double
0.01 0.03 0
0.01 0.025 0
0.015 0.03 0
0.015 0.025 0
0.01 0.025 0
0.01 0.02 0
0.015 0.025 0
0.015 0.02 0
0.015 0.03 0
0.015 0.025 0
0.02 0.03 0
0.02 0.025 0
0.015 0.025 0
0.015 0.02 0
0.02 0.025 0
0.02 0.02 0
0.01 0.04 0
0.01 0.035 0
0.015 0.04 0
0.015 0.035 0
0.01 0.035 0
0.01 0.03 0
0.015 0.035 0
0.015 0.03 0
0.015 0.04 0
0.015 0.035 0
0.02 0.04 0
0.02 0.035 0
0.015 0.035 0
0.015 0.03 0
0.02 0.035 0
0.02 0.03 0
0 0.04 0
0 0.035 0
0.005 0.04 0
0.005 0.035 0
0 0.035 0
0 0.03 0
0.005 0.035 0
0.005 0.03 0
0.005 0.04 0
0.005 0.035 0
0.01 0.04 0
0.01 0.035 0
0.005 0.035 0
0.005 0.03 0
0.01 0.035 0
0.01 0.03 0
0 0.03 0
0 0.025 0
0.005 0.03 0
0.005 0.025 0
0 0.025 0
0 0.02 0
0.005 0.025 0
0.005 0.02 0
0.005 0.03 0
0.005 0.025 0
0.01 0.03 0
0.01 0.025 0
0.005 0.025 0
0.005 0.02 0
0.01 0.025 0
0.01 0.02 0
0.79 0.09 0
0.795 0.09 0
0.79 0.095 0
0.795 0.095 0
0.795 0.09 0
0.8 0.09 0
0.795 0.095 0
0.8 0.095 0
0.79 0.095 0
0.795 0.095 0
0.79 0.1 0
0.795 0.1 0
0.795 0.095 0
0.8 0.095 0
0.795 0.1 0
0.8 0.1 0
0.81 0.09 0
0.815 0.09 0
0.81 0.095 0
0.815 0.095 0
0.815 0.09 0
0.82 0.09 0
0.815 0.095 0
0.82 0.095 0
0.81 0.095 0
0.815 0.095 0
0.81 0.1 0
0.815 0.1 0
0.815 0.095 0
0.82 0.095 0
0.815 0.1 0
0.82 0.1 0
0.8 0.09 0
0.805 0.09 0
0.8 0.095 0
0.805 0.095 0
0.805 0.09 0
0.81 0.09 0
0.805 0.095 0
0.81 0.095 0
0.8 0.095 0
0.805 0.095 0
0.8 0.1 0
0.805 0.1 0
0.805 0.095 0
0.81 0.095 0
0.805 0.1 0
0.81 0.1 0
0.81 0.08 0
0.815 0.08 0
0.81 0.085 0
0.815 0.085 0
0.815 0.08 0
0.82 0.08 0
0.815 0.085 0
0.82 0.085 0
0.81 0.085 0
0.815 0.085 0
0.81 0.09 0
0.815 0.09 0
0.815 0.085 0
0.82 0.085 0
0.815 0.09 0
0.82 0.09 0
0.03 0.15 0
0.03 0.155 0
0.025 0.15 0
0.025 0.155 0
0.03 0.155 0
0.03 0.16 0
0.025 0.155 0
0.025 0.16 0
0.025 0.15 0
0.025 0.155 0
0.02 0.15 0
0.02 0.155 0
0.025 0.155 0
0.025 0.16 0
0.02 0.155 0
0.02 0.16 0
0.04 0.14 0
0.04 0.145 0
0.035 0.14 0
0.035 0.145 0
0.04 0.145 0
0.04 0.15 0
0.035 0.145 0
0.035 0.15 0
0.035 0.14 0
0.035 0.145 0
0.03 0.14 0
0.03 0.145 0
0.035 0.145 0
0.035 0.15 0
0.03 0.145 0
0.03 0.15 0
0.04 0.15 0
0.04 0.155 0
0.035 0.15 0
0.035 0.155 0
0.04 0.155 0
0.04 0.16 0
0.035 0.155 0
0.035 0.16 0
0.035 0.15 0
0.035 0.155 0
0.03 0.15 0
0.03 0.155 0
0.035 0.155 0
0.035 0.16 0
0.03 0.155 0
0.03 0.16 0
0.87 0.09 0
0.875 0.09 0
0.87 0.095 0
0.875 0.095 0
0.875 0.09 0
0.88 0.09 0
0.875 0.095 0
0.88 0.095 0
0.87 0.095 0
0.875 0.095 0
0.87 0.1 0
0.875 0.1 0
0.875 0.095 0
0.88 0.095 0
0.875 0.1 0
0.88 0.1 0
0.86 0.09 0
0.865 0.09 0
0.86 0.095 0
0.865 0.095 0
0.865 0.09 0
0.87 0.09 0
0.865 0.095 0
0.87 0.095 0
0.86 0.095 0
0.865 0.095 0
0.86 0.1 0
0.865 0.1 0
0.865 0.095 0
0.87 0.095 0
0.865 0.1 0
0.87 0.1 0
0.86 0.08 0
0.865 0.08 0
0.86 0.085 0
0.865 0.085 0
0.865 0.08 0
0.87 0.08 0
0.865 0.085 0
0.87 0.085 0
0.86 0.085 0
0.865 0.085 0
0.86 0.09 0
0.865 0.09 0
0.865 0.085 0
0.87 0.085 0
0.865 0.09 0
0.87 0.09 0
0.87 0.08 0
0.875 0.08 0
0.87 0.085 0
0.875 0.085 0
0.875 0.08 0
0.88 0.08 0
0.875 0.085 0
0.88 0.085 0
0.87 0.085 0
0.875 0.085 0
0.87 0.09 0
0.875 0.09 0
0.875 0.085 0
0.88 0.085 0
0.875 0.09 0
0.88 0.09 0
0.04 0.17 0
0.035 0.17 0
0.04 0.165 0
0.035 0.165 0
0.035 0.17 0
0.03 0.17 0
0.035 0.165 0
0.03 0.165 0
0.04 0.165 0
0.035 0.165 0
0.04 0.16 0
0.035 0.16 0
0.035 0.165 0
0.03 0.165 0
0.035 0.16 0
0.03 0.16 0
0.04 0.18 0
0.035 0.18 0
0.04 0.175 0
0.035 0.175 0
0.035 0.18 0
0.03 0.18 0
0.035 0.175 0
0.03 0.175 0
0.04 0.175 0
0.035 0.175 0
0.04 0.17 0
0.035 0.17 0
0.035 0.175 0
0.03 0.175 0
0.035 0.17 0
0.03 0.17 0
0.03 0.18 0
0.025 0.18 0
0.03 0.175 0
0.025 0.175 0
0.025 0.18 0
0.02 0.18 0
0.025 0.175 0
0.02 0.175 0
0.03 0.175 0
0.025 0.175 0
0.03 0.17 0
0.025 0.17 0
0.025 0.175 0
0.02 0.175 0
0.025 0.17 0
0.02 0.17 0
0.03 0.17 0
0.025 0.17 0
0.03 0.165 0
0.025 0.165 0
0.025 0.17 0
0.02 0.17 0
0.025 0.165 0
0.02 0.165 0
0.03 0.165 0
0.025 0.165 0
0.03 0.16 0
0.025 0.16 0
0.025 0.165 0
0.02 0.165 0
0.025 0.16 0
0.02 0.16 0
0.07 0.14 0
0.07 0.145 0
0.065 0.14 0
0.065 0.145 0
0.07 0.145 0
0.07 0.15 0
0.065 0.145 0
0.065 0.15 0
0.065 0.14 0
0.065 0.145 0
0.06 0.14 0
0.06 0.145 0
0.065 0.145 0
0.065 0.15 0
0.06 0.145 0
0.06 0.15 0
0.08 0.14 0
0.08 0.145 0
0.075 0.14 0
0.075 0.145 0
0.08 0.145 0
0.08 0.15 0
0.075 0.145 0
0.075 0.15 0
0.075 0.14 0
0.075 0.145 0
0.07 0.14 0
0.07 0.145 0
0.075 0.145 0
0.075 0.15 0
0.07 0.145 0
0.07 0.15 0
0.08 0.15 0
0.08 0.155 0
0.075 0.15 0
0.075 0.155 0
0.08 0.155 0
0.08 0.16 0
0.075 0.155 0
0.075 0.16 0
0.075 0.15 0
0.075 0.155 0
0.07 0.15 0
0.07 0.155 0
0.075 0.155 0
0.075 0.16 0
0.07 0.155 0
0.07 0.16 0
0.07 0.15 0
0.07 0.155 0
0.065 0.15 0
0.065 0.155 0
0.07 0.155 0
0.07 0.16 0
0.065 0.155 0
0.065 0.16 0
0.065 0.15 0
0.065 0.155 0
0.06 0.15 0
0.06 0.155 0
0.065 0.155 0
0.065 0.16 0
0.06 0.155 0
0.06 0.16 0
0.85 0.11 0
0.845 0.11 0
0.85 0.105 0
0.845 0.105 0
0.845 0.11 0
0.84 0.11 0
0.845 0.105 0
0.84 0.105 0
0.85 0.105 0
0.845 0.105 0
0.85 0.1 0
0.845 0.1 0
0.845 0.105 0
0.84 0.105 0
0.845 0.1 0
0.84 0.1 0
0.86 0.11 0
0.855 0.11 0
0.86 0.105 0
0.855 0.105 0
0.855 0.11 0
0.85 0.11 0
0.855 0.105 0
0.85 0.105 0
0.86 0.105 0
0.855 0.105 0
0.86 0.1 0
0.855 0.1 0
0.855 0.105 0
0.85 0.105 0
0.855 0.1 0
0.85 0.1 0
0.86 0.12 0
0.855 0.12 0
0.86 0.115 0
0.855 0.115 0
0.855 0.12 0
0.85 0.12 0
0.855 0.115 0
0.85 0.115 0
0.86 0.115 0
0.855 0.115 0
0.86 0.11 0
0.855 0.11 0
0.855 0.115 0
0.85 0.115 0
0.855 0.11 0
0.85 0.11 0
0.85 0.12 0
0.845 0.12 0
0.85 0.115 0
0.845 0.115 0
0.845 0.12 0
0.84 0.12 0
0.845 0.115 0
0.84 0.115 0
0.85 0.115 0
0.845 0.115 0
0.85 0.11 0
0.845 0.11 0
0.845 0.115 0
0.84 0.115 0
0.845 0.11 0
0.84 0.11 0
0.23 0.13 0
0.23 0.125 0
0.235 0.13 0
0.235 0.125 0
0.23 0.125 0
0.23 0.12 0
0.235 0.125 0
0.235 0.12 0
0.235 0.13 0
0.235 0.125 0
0.24 0.13 0
0.24 0.125 0
0.235 0.125 0
0.235 0.12 0
0.24 0.125 0
0.24 0.12 0
0.23 0.14 0
0.23 0.135 0
0.235 0.14 0
0.235 0.135 0
0.23 0.135 0
0.23 0.13 0
0.235 0.135 0
0.235 0.13 0
0.235 0.14 0
0.235 0.135 0
0.24 0.14 0
0.24 0.135 0
0.235 0.135 0
0.235 0.13 0
0.24 0.135 0
0.24 0.13 0
0.22 0.14 0
0.22 0.135 0
0.225 0.14 0
0.225 0.135 0
0.22 0.135 0
0.22 0.13 0
0.225 0.135 0
0.225 0.13 0
0.225 0.14 0
0.225 0.135 0
0.23 0.14 0
0.23 0.135 0
0.225 0.135 0
0.225 0.13 0
0.23 0.135 0
0.23 0.13 0
0.22 0.13 0
0.22 0.125 0
0.225 0.13 0
0.225 0.125 0
0.22 0.125 0
0.22 0.12 0
0.225 0.125 0
0.225 0.12 0
0.225 0.13 0
0.225 0.125 0
0.23 0.13 0
0.23 0.125 0
0.225 0.125 0
0.225 0.12 0
0.23 0.125 0
0.23 0.12 0
0.21 0.14 0
0.21 0.145 0
0.205 0.14 0
0.205 0.145 0
0.21 0.145 0
0.21 0.15 0
0.205 0.145 0
0.205 0.15 0
0.205 0.14 0
0.205 0.145 0
0.2 0.14 0
0.2 0.145 0
0.205 0.145 0
0.205 0.15 0
0.2 0.145 0
0.2 0.15 0
0.22 0.14 0
0.22 0.145 0
0.215 0.14 0
0.215 0.145 0
0.22 0.145 0
0.22 0.15 0
0.215 0.145 0
0.215 0.15 0
0.215 0.14 0
0.215 0.145 0
0.21 0.14 0
0.21 0.145 0
0.215 0.145 0
0.215 0.15 0
0.21 0.145 0
0.21 0.15 0
0.22 0.15 0
0.22 0.155 0
0.215 0.15 0
0.215 0.155 0
0.22 0.155 0
0.22 0.16 0
0.215 0.155 0
0.215 0.16 0
0.215 0.15 0
0.215 0.155 0
0.21 0.15 0
0.21 0.155 0
0.215 0.155 0
0.215 0.16 0
0.21 0.155 0
0.21 0.16 0
0.21 0.15 0
0.21 0.155 0
0.205 0.15 0
0.205 0.155 0
0.21 0.155 0
0.21 0.16 0
0.205 0.155 0
0.205 0.16 0
0.205 0.15 0
0.205 0.155 0
0.2 0.15 0
0.2 0.155 0
0.205 0.155 0
0.205 0.16 0
0.2 0.155 0
0.2 0.16 0
0.89 0.09 0
0.895 0.09 0
0.89 0.095 0
0.895 0.095 0
0.895 0.09 0
0.9 0.09 0
0.895 0.095 0
0.9 0.095 0
0.89 0.095 0
0.895 0.095 0
0.89 0.1 0
0.895 0.1 0
0.895 0.095 0
0.9 0.095 0
0.895 0.1 0
0.9 0.1 0
0.88 0.09 0
0.885 0.09 0
0.88 0.095 0
0.885 0.095 0
0.885 0.09 0
0.89 0.09 0
0.885 0.095 0
0.89 0.095 0
0.88 0.095 0
0.885 0.095 0
0.88 0.1 0
0.885 0.1 0
0.885 0.095 0
0.89 0.095 0
0.885 0.1 0
0.89 0.1 0
0.88 0.08 0
0.885 0.08 0
0.88 0.085 0
0.885 0.085 0
0.885 0.08 0
0.89 0.08 0
0.885 0.085 0
0.89 0.085 0
0.88 0.085 0
0.885 0.085 0
0.88 0.09 0
0.885 0.09 0
0.885 0.085 0
0.89 0.085 0
0.885 0.09 0
0.89 0.09 0
0.89 0.08 0
0.895 0.08 0
0.89 0.085 0
0.895 0.085 0
0.895 0.08 0
0.9 0.08 0
0.895 0.085 0
0.9 0.085 0
0.89 0.085 0
0.895 0.085 0
0.89 0.09 0
0.895 0.09 0
0.895 0.085 0
0.9 0.085 0
0.895 0.09 0
0.9 0.09 0
0.29 0.14 0
0.295 0.14 0
0.29 0.145 0
0.295 0.145 0
0.295 0.14 0
0.3 0.14 0
0.295 0.145 0
0.3 0.145 0
0.29 0.145 0
0.295 0.145 0
0.29 0.15 0
0.295 0.15 0
0.295 0.145 0
0.3 0.145 0
0.295 0.15 0
0.3 0.15 0
0.29 0.15 0
0.295 0.15 0
0.29 0.155 0
0.295 0.155 0
0.295 0.15 0
0.3 0.15 0
0.295 0.155 0
0.3 0.155 0
0.29 0.155 0
0.295 0.155 0
0.29 0.16 0
0.295 0.16 0
0.295 0.155 0
0.3 0.155 0
0.295 0.16 0
0.3 0.16 0
0.28 0.15 0
0.285 0.15 0
0.28 0.155 0
0.285 0.155 0
0.285 0.15 0
0.29 0.15 0
0.285 0.155 0
0.29 0.155 0
0.28 0.155 0
0.285 0.155 0
0.28 0.16 0
0.285 0.16 0
0.285 0.155 0
0.29 0.155 0
0.285 0.16 0
0.29 0.16 0
0.28 0.14 0
0.285 0.14 0
0.28 0.145 0
0.285 0.145 0
0.285 0.14 0
0.29 0.14 0
0.285 0.145 0
0.29 0.145 0
0.28 0.145 0
0.285 0.145 0
0.28 0.15 0
0.285 0.15 0
0.285 0.145 0
0.29 0.145 0
0.285 0.15 0
0.29 0.15 0
0.25 0.14 0
0.25 0.145 0
0.245 0.14 0
0.245 0.145 0
0.25 0.145 0
0.25 0.15 0
0.245 0.145 0
0.245 0.15 0
0.245 0.14 0
0.245 0.145 0
0.24 0.14 0
0.24 0.145 0
0.245 0.145 0
0.245 0.15 0
0.24 0.145 0
0.24 0.15 0
0.26 0.14 0
0.26 0.145 0
0.255 0.14 0
0.255 0.145 0
0.26 0.145 0
0.26 0.15 0
0.255 0.145 0
0.255 0.15 0
0.255 0.14 0
0.255 0.145 0
0.25 0.14 0
0.25 0.145 0
0.255 0.145 0
0.255 0.15 0
0.25 0.145 0
0.25 0.15 0
0.26 0.15 0
0.26 0.155 0
0.255 0.15 0
0.255 0.155 0
0.26 0.155 0
0.26 0.16 0
0.255 0.155 0
0.255 0.16 0
0.255 0.15 0
0.255 0.155 0
0.25 0.15 0
0.25 0.155 0
0.255 0.155 0
0.255 0.16 0
0.25 0.155 0
0.25 0.16 0
0.25 0.15 0
0.25 0.155 0
0.245 0.15 0
0.245 0.155 0
0.25 0.155 0
0.25 0.16 0
0.245 0.155 0
0.245 0.16 0
0.245 0.15 0
0.245 0.155 0
0.24 0.15 0
0.24 0.155 0
0.245 0.155 0
0.245 0.16 0
0.24 0.155 0
0.24 0.16 0
0.08 0.17 0
0.075 0.17 0
0.08 0.165 0
0.075 0.165 0
0.075 0.17 0
0.07 0.17 0
0.075 0.165 0
0.07 0.165 0
0.08 0.165 0
0.075 0.165 0
0.08 0.16 0
0.075 0.16 0
[...]
POINT_DATA 37472
SCALARS solution_0 double 1
LOOKUP_TABLE default
0.0050981 0.00437332 0.00509811 0.00437333 0.00437332 0.00359857 0.00437333 0.00359854 0.00509811 0.00437333 0.00509861 0.0043732 0.00437333 0.00359854 0.0043732 0.00359856 0.006398 0.00577276 0.00639683 0.00577286 0.00577276 0.0050981 0.00577286 0.00509811 0.00639683 0.00577286 0.00639847 0.00577436 0.00577286 0.00509811 0.00577436 0.00509861 0.00639753 0.0057728 0.00639749 0.00577279 0.0057728 0.00509804 0.00577279 0.00509801 0.00639749 0.00577279 0.006398 0.00577276 0.00577279 0.00509801 0.00577276 0.0050981 0.00509804 0.00437329 0.00509801 0.0043733 0.00437329 0.00359857 0.0043733 0.00359858 0.00509801 0.0043733 0.0050981 0.00437332 0.0043733 0.00359858 0.00437332 0.00359857 0.00989668 0.00989555 0.00997096 0.0099711 0.00989555 0.00989553 0.0099711 0.00997097 0.00997096 0.0099711 0.009996 0.00999607 0.0099711 0.00997097 0.00999607 0.00999616 0.00989673 0.0098962 0.009971 0.0099711 0.0098962 0.00989617 0.0099711 0.00997108 0.009971 0.0099711 0.00999604 0.00999598 0.0099711 0.00997108 0.00999598 0.00999605 0.00989553 0.00989553 0.00997097 0.00997111 0.00989553 0.00989673 0.00997111 0.009971 0.00997097 0.00997111 0.00999616 0.00999609 0.00997111 0.009971 0.00999609 0.00999604 0.00959722 0.00959558 0.0097728 0.00977128 0.00959558 0.00959672 0.00977128 0.00977115 0.0097728 0.00977128 0.00989673 0.0098962 0.00977128 0.00977115 0.0098962 0.00989617 0.00749778 0.00697225 0.0074966 0.00697232 0.00697225 0.0063975 0.00697232 0.0063975 0.0074966 0.00697232 0.00749665 0.00697211 0.00697232 0.0063975 0.00697211 0.00639747 0.00839729 0.00797197 0.00839609 0.00797208 0.00797197 0.00749722 0.00797208 0.00749725 0.00839609 0.00797208 0.00839777 0.00797363 0.00797208 0.00749725 0.00797363 0.00749778 0.00749722 0.00697235 0.00749725 0.00697237 0.00697235 0.00639752 0.00697237 0.00639748 0.00749725 0.00697237 0.00749778 0.00697225 0.00697237 0.00639748 0.00697225 0.0063975 0.00989615 0.00989621 0.00997111 0.00997116 0.00989621 0.00989619 0.00997116 0.00997114 0.00997111 0.00997116 0.00999611 0.00999613 0.00997116 0.00997114 0.00999613 0.00999613 0.00989614 0.00989604 0.0099711 0.00997109 0.00989604 0.00989615 0.00997109 0.00997111 0.0099711 0.00997109 0.0099961 0.00999609 0.00997109 0.00997111 0.00999609 0.00999611 0.00959665 0.0095961 0.00977108 0.00977113 0.0095961 0.00959665 0.00977113 0.00977109 0.00977108 0.00977113 0.00989614 0.00989604 0.00977113 0.00977109 0.00989604 0.00989615 0.00959665 0.00959551 0.00977109 0.00977139 0.00959551 0.00959673 0.00977139 0.00977114 0.00977109 0.00977139 0.00989615 0.00989621 0.00977139 0.00977114 0.00989621 0.00989619 0.00509803 0.00509804 0.00577273 0.00577274 0.00509804 0.00509804 0.00577274 0.00577275 0.00577273 0.00577274 0.00639752 0.00639748 0.00577274 0.00577275 0.00639748 0.0063975 0.00359873 0.0035987 0.00437337 0.00437336 0.0035987 0.00359869 0.00437336 0.00437336 0.00437337 0.00437336 0.00509803 0.00509804 0.00437336 0.00437336 0.00509804 0.00509804 0.00359869 0.00359868 0.00437336 0.00437335 0.00359868 0.00359866 0.00437335 0.00437335 0.00437336 0.00437335 0.00509804 0.00509805 0.00437335 0.00437335 0.00509805 0.00509804 0.00509804 0.00509805 0.00577275 0.00577276 0.00509805 0.00509804 0.00577276 0.00577275 0.00577275 0.00577276 0.0063975 0.0063975 0.00577276 0.00577275 0.0063975 0.00639747 0.00839677 0.00797192 0.0083968 0.00797195 0.00797192 0.0074971 0.00797195 0.00749711 0.0083968 0.00797195 0.00839676 0.00797192 0.00797195 0.00749711 0.00797192 0.00749712 0.00839669 0.00797185 0.00839669 0.00797188 0.00797185 0.00749704 0.00797188 0.00749706 0.00839669 0.00797188 0.00839677 0.00797192 0.00797188 0.00749706 0.00797192 0.0074971 0.00749704 0.00697224 0.00749706 0.00697226 0.00697224 0.00639745 0.00697226 0.00639747 0.00749706 0.00697226 0.0074971 0.00697229 0.00697226 0.00639747 0.00697229 0.0063975 0.0074971 0.00697229 0.00749711 0.00697231 0.00697229 0.0063975 0.00697231 0.00639752 0.00749711 0.00697231 0.00749712 0.00697232 0.00697231 0.00639752 0.00697232 0.00639753 0.00989614 0.00989606 0.0099711 0.00997106 0.00989606 0.00989608 0.00997106 0.00997104 0.0099711 0.00997106 0.00999609 0.00999605 0.00997106 0.00997104 0.00999605 0.00999603 0.00989614 0.00989618 0.0099711 0.00997113 0.00989618 0.00989614 0.00997113 0.0099711 0.0099711 0.00997113 0.0099961 0.0099961 0.00997113 0.0099711 0.0099961 0.00999609 0.00959665 0.00959553 0.00977108 0.00977137 0.00959553 0.00959666 0.00977137 0.00977109 0.00977108 0.00977137 0.00989614 0.00989618 0.00977137 0.00977109 0.00989618 0.00989614 0.00959666 0.00959616 0.00977109 0.00977113 0.00959616 0.00959619 0.00977113 0.00977113 0.00977109 0.00977113 0.00989614 0.00989606 0.00977113 0.00977113 0.00989606 0.00989608 0.00909638 0.00937127 0.00909638 0.00937128 0.00937127 0.00959618 0.00937128 0.00959618 0.00909638 0.00937128 0.00909639 0.00937128 0.00937128 0.00959618 0.00937128 0.00959619 0.00839666 0.00877151 0.00839666 0.00877151 0.00877151 0.00909638 0.00877151 0.00909638 0.00839666 0.00877151 0.00839667 0.00877152 0.00877151 0.00909638 0.00877152 0.00909639 0.00839666 0.00877151 0.00839666 0.00877151 0.00877151 0.00909638 0.00877151 0.00909638 0.00839666 0.00877151 0.00839666 0.00877151 0.00877151 0.00909638 0.00877151 0.00909638 0.00909638 0.00937127 0.00909638 0.00937127 0.00937127 0.00959618 0.00937127 0.00959618 0.00909638 0.00937127 0.00909638 0.00937127 0.00937127 0.00959618 0.00937127 0.00959618 0.00839666 0.00797183 0.00839666 0.00797183 0.00797183 0.00749703 0.00797183 0.00749702 0.00839666 0.00797183 0.00839666 0.00797183 0.00797183 0.00749702 0.00797183 0.00749701 0.00839666 0.00797183 0.00839666 0.00797183 0.00797183 0.00749702 0.00797183 0.00749703 0.00839666 0.00797183 0.00839666 0.00797183 0.00797183 0.00749703 0.00797183 0.00749703 0.00749702 0.00697223 0.00749703 0.00697224 0.00697223 0.00639746 0.00697224 0.00639747 0.00749703 0.00697224 0.00749703 0.00697224 0.00697224 0.00639747 0.00697224 0.00639747 0.00749703 0.00697224 0.00749702 0.00697223 0.00697224 0.00639747 0.00697223 0.00639746 0.00749702 0.00697223 0.00749701 0.00697222 0.00697223 0.00639746 0.00697222 0.00639744 0.00989613 0.00989612 0.0099711 0.00997109 0.00989612 0.00989612 0.00997109 0.0099711 0.0099711 0.00997109 0.00999609 0.00999608 0.00997109 0.0099711 0.00999608 0.00999609 0.00989619 0.00989612 0.00997114 0.00997112 0.00989612 0.00989613 0.00997112 0.0099711 0.00997114 0.00997112 0.00999613 0.00999611 0.00997112 0.0099711 0.00999611 0.00999609 0.00959673 0.00959626 0.00977114 0.00977121 0.00959626 0.00959627 0.00977121 0.00977119 0.00977114 0.00977121 0.00989619 0.00989612 0.00977121 0.00977119 0.00989612 0.00989613 0.00959627 0.0095962 0.00977119 0.00977117 0.0095962 0.00959623 0.00977117 0.00977116 0.00977119 0.00977117 0.00989613 0.00989612 0.00977117 0.00977116 0.00989612 0.00989612 0.00839669 0.00839669 0.00797186 0.00797186 0.00839669 0.00839669 0.00797186 0.00797186 0.00797186 0.00797186 0.00749706 0.00749705 0.00797186 0.00797186 0.00749705 0.00749705 0.00749706 0.00749705 0.00697227 0.00697226 0.00749705 0.00749705 0.00697226 0.00697226 0.00697227 0.00697226 0.00639749 0.00639749 0.00697226 0.00697226 0.00639749 0.00639749 0.00749706 0.00749706 0.00697227 0.00697227 0.00749706 0.00749706 0.00697227 0.00697227 0.00697227 0.00697227 0.0063975 0.0063975 0.00697227 0.00697227 0.0063975 0.00639749 0.00839669 0.00839669 0.00797186 0.00797186 0.00839669 0.00839669 0.00797186 0.00797186 0.00797186 0.00797186 0.00749706 0.00749706 0.00797186 0.00797186 0.00749706 0.00749706 0.00839668 0.00797185 0.00839667 0.00797184 0.00797185 0.00749704 0.00797184 0.00749704 0.00839667 0.00797184 0.00839667 0.00797184 0.00797184 0.00749704 0.00797184 0.00749703 0.00839668 0.00797186 0.00839668 0.00797185 0.00797186 0.00749705 0.00797185 0.00749705 0.00839668 0.00797185 0.00839668 0.00797185 0.00797185 0.00749705 0.00797185 0.00749704 0.00749705 0.00697227 0.00749705 0.00697226 0.00697227 0.0063975 0.00697226 0.0063975 0.00749705 0.00697226 0.00749704 0.00697226 0.00697226 0.0063975 0.00697226 0.0063975 0.00749704 0.00697226 0.00749704 0.00697225 0.00697226 0.0063975 0.00697225 0.00639749 0.00749704 0.00697225 0.00749703 0.00697225 0.00697225 0.00639749 0.00697225 0.00639749 0.00509791 0.00509792 0.00577267 0.00577269 0.00509792 0.00509794 0.00577269 0.00577272 0.00577267 0.00577269 0.00639745 0.00639747 0.00577269 0.00577272 0.00639747 0.0063975 0.00359845 0.00359843 0.00437317 0.00437316 0.00359843 0.0035984 0.00437316 0.00437316 0.00437317 0.00437316 0.00509791 0.00509792 0.00437316 0.00437316 0.00509792 0.00509794 0.0035984 0.00359835 0.00437316 0.00437317 0.00359835 0.00359829 0.00437317 0.00437321 0.00437316 0.00437317 0.00509794 0.00509797 0.00437317 0.00437321 0.00509797 0.00509803 0.00509794 0.00509797 0.00577272 0.00577275 0.00509797 0.00509803 0.00577275 0.00577277 0.00577272 0.00577275 0.0063975 0.00639752 0.00577275 0.00577277 0.00639752 0.00639753 0.00959615 0.00977109 0.00959616 0.00977108 0.00977109 0.00989602 0.00977108 0.00989603 0.00959616 0.00977108 0.00959616 0.00977108 0.00977108 0.00989603 0.00977108 0.00989603 0.00959663 0.0097726 0.00959612 0.00977088 0.0097726 0.00989649 0.00977088 0.00989599 0.00959612 0.00977088 0.00959615 0.00977109 0.00977088 0.00989599 0.00977109 0.00989602 0.00959649 0.00959647 0.00977145 0.00977148 0.00959647 0.00959656 0.00977148 0.00977153 0.00977145 0.00977148 0.00989642 0.00989647 0.00977148 0.00977153 0.00989647 0.00989652 0.00959656 0.00959661 0.00977153 0.00977159 0.00959661 0.00959665 0.00977159 0.00977165 0.00977153 0.00977159 0.00989652 0.00989658 0.00977159 0.00977165 0.00989658 0.00989664 0.00989652 0.00989658 0.00997152 0.00997158 0.00989658 0.00989664 0.00997158 0.00997164 0.00997152 0.00997158 0.00999652 0.00999658 0.00997158 0.00997164 0.00999658 0.00999664 0.00989642 0.00989647 0.00997141 0.00997146 0.00989647 0.00989652 0.00997146 0.00997152 0.00997141 0.00997146 0.0099964 0.00999646 0.00997146 0.00997152 0.00999646 0.00999652 0.00639748 0.00577276 0.00639748 0.00577274 0.00577276 0.00509809 0.00577274 0.00509799 0.00639748 0.00577274 0.00639748 0.00577273 0.00577274 0.00509799 0.00577273 0.005098 0.00509809 0.00437331 0.00509799 0.00437331 0.00437331 0.0035991 0.00437331 0.00359857 0.00509799 0.00437331 0.005098 0.00437329 0.00437331 0.00359857 0.00437329 0.00359858 0.005098 0.00437329 0.005098 0.00437329 0.00437329 0.00359858 0.00437329 0.00359858 0.005098 0.00437329 0.005098 0.00437328 0.00437329 0.00359858 0.00437328 0.00359858 0.00639748 0.00577273 0.00639748 0.00577273 0.00577273 0.005098 0.00577273 0.005098 0.00639748 0.00577273 0.00639748 0.00577273 0.00577273 0.005098 0.00577273 0.005098 0.00639804 0.00639678 0.00577256 0.00577296 0.00639678 0.00639789 0.00577296 0.00577256 0.00577256 0.00577296 0.00509747 0.00509752 0.00577296 0.00577256 0.00509752 0.00509862 0.00839669 0.00839669 0.00877155 0.00877158 0.00839669 0.00839677 0.00877158 0.00877152 0.00877155 0.00877158 0.00909642 0.00909642 0.00877158 0.00877152 0.00909642 0.0090969 0.00839677 0.0083968 0.00877152 0.00877178 0.0083968 0.00839676 0.00877178 0.00877149 0.00877152 0.00877178 0.0090969 0.0090957 0.00877178 0.00877149 0.0090957 0.00909684 0.00909642 0.00909642 0.00937121 0.00937128 0.00909642 0.0090969 0.00937128 0.0093727 0.00937121 0.00937128 0.00959663 0.00959545 0.00937128 0.0093727 0.00959545 0.00959705 0.00509803 0.00577273 0.00509805 0.00577275 0.00577273 0.00639747 0.00577275 0.00639748 0.00509805 0.00577275 0.00509806 0.00577276 0.00577275 0.00639748 0.00577276 0.0063975 0.00359873 0.00437338 0.00359871 0.00437338 0.00437338 0.00509803 0.00437338 0.00509805 0.00359871 0.00437338 0.0035987 0.00437337 0.00437338 0.00509805 0.00437337 0.00509806 0.00359932 0.00437328 0.00359875 0.00437337 0.00437328 0.005098 0.00437337 0.00509798 0.00359875 0.00437337 0.00359873 0.00437338 0.00437337 0.00509798 0.00437338 0.00509803 0.005098 0.00577271 0.00509798 0.00577271 0.00577271 0.00639746 0.00577271 0.00639746 0.00509798 0.00577271 0.00509803 0.00577273 0.00577271 0.00639746 0.00577273 0.00639747 0.00909691 0.00909687 0.00937191 0.00937185 0.00909687 0.00909681 0.00937185 0.00937177 0.00937191 0.00937185 0.0095969 0.00959684 0.00937185 0.00937177 0.00959684 0.00959677 0.00839692 0.00839692 0.00877191 0.0087719 0.00839692 0.00839692 0.0087719 0.00877186 0.00877191 0.0087719 0.00909691 0.00909687 0.0087719 0.00877186 0.00909687 0.00909681 0.00839692 0.00839683 0.00877186 0.00877179 0.00839683 0.00839731 0.00877179 0.0087716 0.00877186 0.00877179 0.00909681 0.00909669 0.00877179 0.0087716 0.00909669 0.00909665 0.00909681 0.00909669 0.00937177 0.0093717 0.00909669 0.00909665 0.0093717 0.00937165 0.00937177 0.0093717 0.00959677 0.00959671 0.0093717 0.00937165 0.00959671 0.00959665 0.00909642 0.00937121 0.00909634 0.00937125 0.00937121 0.00959663 0.00937125 0.00959612 0.00909634 0.00937125 0.00909636 0.00937125 0.00937125 0.00959612 0.00937125 0.00959615 0.00909636 0.00937125 0.00909636 0.00937125 0.00937125 0.00959615 0.00937125 0.00959616 0.00909636 0.00937125 0.00909635 0.00937125 0.00937125 0.00959616 0.00937125 0.00959616 0.00839665 0.00877149 0.00839663 0.00877149 0.00877149 0.00909636 0.00877149 0.00909636 0.00839663 0.00877149 0.00839663 0.00877148 0.00877149 0.00909636 0.00877148 0.00909635 0.00839669 0.00877155 0.00839666 0.00877151 0.00877155 0.00909642 0.00877151 0.00909634 0.00839666 0.00877151 0.00839665 0.00877149 0.00877151 0.00909634 0.00877149 0.00909636 0.00749705 0.00749705 0.00797185 0.00797185 0.00749705 0.00749705 0.00797185 0.00797185 0.00797185 0.00797185 0.00839668 0.00839667 0.00797185 0.00797185 0.00839667 0.00839667 0.00639749 0.00639749 0.00697226 0.00697226 0.00639749 0.0063975 0.00697226 0.00697226 0.00697226 0.00697226 0.00749705 0.00749705 0.00697226 0.00697226 0.00749705 0.00749705 0.0063975 0.0063975 0.00697226 0.00697227 0.0063975 0.0063975 0.00697227 0.00697227 0.00697226 0.00697227 0.00749705 0.00749705 0.00697227 0.00697227 0.00749705 0.00749704 0.00749705 0.00749705 0.00797185 0.00797184 0.00749705 0.00749704 0.00797184 0.00797185 0.00797185 0.00797184 0.00839667 0.00839666 0.00797184 0.00797185 0.00839666 0.00839665 0.005098 0.00577274 0.005098 0.00577274 0.00577274 0.00639749 0.00577274 0.00639749 0.005098 0.00577274 0.005098 0.00577274 0.00577274 0.00639749 0.00577274 0.00639749 0.00359859 0.00437329 0.00359859 0.00437329 0.00437329 0.005098 0.00437329 0.005098 0.00359859 0.00437329 0.00359859 0.00437329 0.00437329 0.005098 0.00437329 0.005098 0.00359859 0.00437329 0.00359859 0.00437329 0.00437329 0.005098 0.00437329 0.005098 0.00359859 0.00437329 0.00359859 0.00437329 0.00437329 0.005098 0.00437329 0.005098 0.005098 0.00577274 0.005098 0.00577274 0.00577274 0.00639749 0.00577274 0.00639749 0.005098 0.00577274 0.005098 0.00577274 0.00577274 0.00639749 0.00577274 0.00639749 0.00909635 0.00909635 0.00937124 0.00937124 0.00909635 0.00909634 0.00937124 0.00937123 0.00937124 0.00937124 0.00959616 0.00959615 0.00937124 0.00937123 0.00959615 0.00959615 0.00909636 0.00909636 0.00937125 0.00937125 0.00909636 0.00909635 0.00937125 0.00937124 0.00937125 0.00937125 0.00959617 0.00959616 0.00937125 0.00937124 0.00959616 0.00959616 0.00839663 0.00839663 0.00877149 0.00877148 0.00839663 0.00839662 0.00877148 0.00877148 0.00877149 0.00877148 0.00909636 0.00909636 0.00877148 0.00877148 0.00909636 0.00909635 0.00839662 0.00839662 0.00877148 0.00877147 0.00839662 0.00839662 0.00877147 0.00877147 0.00877148 0.00877147 0.00909635 0.00909635 0.00877147 0.00877147 0.00909635 0.00909634 0.00959623 0.00937132 0.00959624 0.00937133 0.00937132 0.00909642 0.00937133 0.00909643 0.00959624 0.00937133 0.00959626 0.00937134 0.00937133 0.00909643 0.00937134 0.00909644 0.00909642 0.00877155 0.00909643 0.00877155 0.00877155 0.00839668 0.00877155 0.00839669 0.00909643 0.00877155 0.00909644 0.00877156 0.00877155 0.00839669 0.00877156 0.0083967 0.00909644 0.00877156 0.00909645 0.00877157 0.00877156 0.0083967 0.00877157 0.00839671 0.00909645 0.00877157 0.00909645 0.00877159 0.00877157 0.00839671 0.00877159 0.00839671 0.00959626 0.00937134 0.00959627 0.00937135 0.00937134 0.00909644 0.00937135 0.00909645 0.00959627 0.00937135 0.00959628 0.00937136 0.00937135 0.00909645 0.00937136 0.00909645 0.00839662 0.00839661 0.00797179 0.00797178 0.00839661 0.00839662 0.00797178 0.00797178 0.00797179 0.00797178 0.00749697 0.00749697 0.00797178 0.00797178 0.00749697 0.00749697 0.00749697 0.00749697 0.00697218 0.00697218 0.00749697 0.00749697 0.00697218 0.00697217 0.00697218 0.00697218 0.00639741 0.0063974 0.00697218 0.00697217 0.0063974 0.0063974 0.00749698 0.00749698 0.00697219 0.00697218 0.00749698 0.00749697 0.00697218 0.00697218 0.00697219 0.00697218 0.00639742 0.00639741 0.00697218 0.00697218 0.00639741 0.00639741 0.00839663 0.00839662 0.0079718 0.00797179 0.00839662 0.00839662 0.00797179 0.00797179 0.0079718 0.00797179 0.00749698 0.00749698 0.00797179 0.00797179 0.00749698 0.00749697 0.00839677 0.00839679 0.0087715 0.00877158 0.00839679 0.00839729 0.00877158 0.00877301 0.0087715 0.00877158 0.00909684 0.00909567 0.00877158 0.00877301 0.00909567 0.00909725 0.00909684 0.0090963 0.00937278 0.00937085 0.0090963 0.00909684 0.00937085 0.00937277 0.00937278 0.00937085 0.00959661 0.00959606 0.00937085 0.00937277 0.00959606 0.0095966 0.00839676 0.00839666 0.00877149 0.00877154 0.00839666 0.00839677 0.00877154 0.0087715 0.00877149 0.00877154 0.00909684 0.0090963 0.00877154 0.0087715 0.0090963 0.00909684 0.00839664 0.00839664 0.0079718 0.0079718 0.00839664 0.00839664 0.0079718 0.0079718 0.0079718 0.0079718 0.00749697 0.00749697 0.0079718 0.0079718 0.00749697 0.00749698 0.00839664 0.00839665 0.0079718 0.00797181 0.00839665 0.00839665 0.00797181 0.00797181 0.0079718 0.00797181 0.00749698 0.00749699 0.00797181 0.00797181 0.00749699 0.007497 0.00749698 0.00749699 0.00697217 0.00697219 0.00749699 0.007497 0.00697219 0.0069722 0.00697217 0.00697219 0.00639738 0.0063974 0.00697219 0.0069722 0.0063974 0.00639742 0.00749697 0.00749697 0.00697216 0.00697217 0.00749697 0.00749698 0.00697217 0.00697217 0.00697216 0.00697217 0.00639737 0.00639737 0.00697217 0.00697217 0.00639737 0.00639738 0.00989608 0.00997104 0.00989607 0.00997106 0.00997104 0.00999603 0.00997106 0.00999604 0.00989607 0.00997106 0.00989617 0.00997108 0.00997106 0.00999604 0.00997108 0.00999605 0.00959621 0.00977115 0.00959619 0.00977116 0.00977115 0.00989608 0.00977116 0.00989607 0.00959619 0.00977116 0.00959672 0.00977115 0.00977116 0.00989607 0.00977115 0.00989617 0.00959619 0.00977113 0.0095962 0.00977114 0.00977113 0.00989607 0.00977114 0.00989608 0.0095962 0.00977114 0.00959621 0.00977115 0.00977114 0.00989608 0.00977115 0.00989608 0.00989607 0.00997104 0.00989608 0.00997104 0.00997104 0.00999603 0.00997104 0.00999603 0.00989608 0.00997104 0.00989608 0.00997104 0.00997104 0.00999603 0.00997104 0.00999603 0.00509783 0.00509784 0.0057726 0.00577261 0.00509784 0.00509786 0.00577261 0.00577264 0.0057726 0.00577261 0.00639738 0.00639739 0.00577261 0.00577264 0.00639739 0.00639741 0.00509783 0.00509783 0.00577259 0.00577259 0.00509783 0.00509783 0.00577259 0.0057726 0.00577259 0.00577259 0.00639737 0.00639737 0.00577259 0.0057726 0.00639737 0.00639738 0.00359839 0.00359838 0.00437309 0.00437309 0.00359838 0.00359838 0.00437309 0.00437309 0.00437309 0.00437309 0.00509783 0.00509783 0.00437309 0.00437309 0.00509783 0.00509783 0.00359838 0.00359836 0.00437309 0.00437309 0.00359836 0.00359834 0.00437309 0.00437309 0.00437309 0.00437309 0.00509783 0.00509784 0.00437309 0.00437309 0.00509784 0.00509786 0.00509864 0.00437495 0.00509812 0.00437343 0.00437495 0.00359961 0.00437343 0.00359796 0.00509812 0.00437343 0.00509809 0.00437331 0.00437343 0.00359796 0.00437331 0.0035991 0.00639752 0.00577269 0.00639742 0.00577279 0.00577269 0.00509864 0.00577279 0.00509812 0.00639742 0.00577279 0.00639748 0.00577276 0.00577279 0.00509812 0.00577276 0.00509809 0.00639804 0.00577256 0.00639754 0.00577279 0.00577256 0.00509747 0.00577279 0.0050974 0.006