# vtk DataFile Version 3.0
#This file was generated by the deal.II library on 2020/11/19 at 17:09:09
ASCII
DATASET UNSTRUCTURED_GRID

POINTS 32000 double
0.01 0.03 0
0.01 0.025 0
0.015 0.03 0
0.015 0.025 0
0.01 0.025 0
0.01 0.02 0
0.015 0.025 0
0.015 0.02 0
0.015 0.03 0
0.015 0.025 0
0.02 0.03 0
0.02 0.025 0
0.015 0.025 0
0.015 0.02 0
0.02 0.025 0
0.02 0.02 0
0.01 0.04 0
0.01 0.035 0
0.015 0.04 0
0.015 0.035 0
0.01 0.035 0
0.01 0.03 0
0.015 0.035 0
0.015 0.03 0
0.015 0.04 0
0.015 0.035 0
0.02 0.04 0
0.02 0.035 0
0.015 0.035 0
0.015 0.03 0
0.02 0.035 0
0.02 0.03 0
0 0.04 0
0 0.035 0
0.005 0.04 0
0.005 0.035 0
0 0.035 0
0 0.03 0
0.005 0.035 0
0.005 0.03 0
0.005 0.04 0
0.005 0.035 0
0.01 0.04 0
0.01 0.035 0
0.005 0.035 0
0.005 0.03 0
0.01 0.035 0
0.01 0.03 0
0 0.03 0
0 0.025 0
0.005 0.03 0
0.005 0.025 0
0 0.025 0
0 0.02 0
0.005 0.025 0
0.005 0.02 0
0.005 0.03 0
0.005 0.025 0
0.01 0.03 0
0.01 0.025 0
0.005 0.025 0
0.005 0.02 0
0.01 0.025 0
0.01 0.02 0
0.79 0.09 0
0.795 0.09 0
0.79 0.095 0
0.795 0.095 0
0.795 0.09 0
0.8 0.09 0
0.795 0.095 0
0.8 0.095 0
0.79 0.095 0
0.795 0.095 0
0.79 0.1 0
0.795 0.1 0
0.795 0.095 0
0.8 0.095 0
0.795 0.1 0
0.8 0.1 0
0.79 0.08 0
0.795 0.08 0
0.79 0.085 0
0.795 0.085 0
0.795 0.08 0
0.8 0.08 0
0.795 0.085 0
0.8 0.085 0
0.79 0.085 0
0.795 0.085 0
0.79 0.09 0
0.795 0.09 0
0.795 0.085 0
0.8 0.085 0
0.795 0.09 0
0.8 0.09 0
0.81 0.09 0
0.815 0.09 0
0.81 0.095 0
0.815 0.095 0
0.815 0.09 0
0.82 0.09 0
0.815 0.095 0
0.82 0.095 0
0.81 0.095 0
0.815 0.095 0
0.81 0.1 0
0.815 0.1 0
0.815 0.095 0
0.82 0.095 0
0.815 0.1 0
0.82 0.1 0
0.8 0.09 0
0.805 0.09 0
0.8 0.095 0
0.805 0.095 0
0.805 0.09 0
0.81 0.09 0
0.805 0.095 0
0.81 0.095 0
0.8 0.095 0
0.805 0.095 0
0.8 0.1 0
0.805 0.1 0
0.805 0.095 0
0.81 0.095 0
0.805 0.1 0
0.81 0.1 0
0.8 0.08 0
0.805 0.08 0
0.8 0.085 0
0.805 0.085 0
0.805 0.08 0
0.81 0.08 0
0.805 0.085 0
0.81 0.085 0
0.8 0.085 0
0.805 0.085 0
0.8 0.09 0
0.805 0.09 0
0.805 0.085 0
0.81 0.085 0
0.805 0.09 0
0.81 0.09 0
0.81 0.08 0
0.815 0.08 0
0.81 0.085 0
0.815 0.085 0
0.815 0.08 0
0.82 0.08 0
0.815 0.085 0
0.82 0.085 0
0.81 0.085 0
0.815 0.085 0
0.81 0.09 0
0.815 0.09 0
0.815 0.085 0
0.82 0.085 0
0.815 0.09 0
0.82 0.09 0
0.03 0.15 0
0.03 0.155 0
0.025 0.15 0
0.025 0.155 0
0.03 0.155 0
0.03 0.16 0
0.025 0.155 0
0.025 0.16 0
0.025 0.15 0
0.025 0.155 0
0.02 0.15 0
0.02 0.155 0
0.025 0.155 0
0.025 0.16 0
0.02 0.155 0
0.02 0.16 0
0.04 0.14 0
0.04 0.145 0
0.035 0.14 0
0.035 0.145 0
0.04 0.145 0
0.04 0.15 0
0.035 0.145 0
0.035 0.15 0
0.035 0.14 0
0.035 0.145 0
0.03 0.14 0
0.03 0.145 0
0.035 0.145 0
0.035 0.15 0
0.03 0.145 0
0.03 0.15 0
0.04 0.15 0
0.04 0.155 0
0.035 0.15 0
0.035 0.155 0
0.04 0.155 0
0.04 0.16 0
0.035 0.155 0
0.035 0.16 0
0.035 0.15 0
0.035 0.155 0
0.03 0.15 0
0.03 0.155 0
0.035 0.155 0
0.035 0.16 0
0.03 0.155 0
0.03 0.16 0
0.03 0.04 0
0.03 0.045 0
0.025 0.04 0
0.025 0.045 0
0.03 0.045 0
0.03 0.05 0
0.025 0.045 0
0.025 0.05 0
0.025 0.04 0
0.025 0.045 0
0.02 0.04 0
0.02 0.045 0
0.025 0.045 0
0.025 0.05 0
0.02 0.045 0
0.02 0.05 0
0.04 0.04 0
0.04 0.045 0
0.035 0.04 0
0.035 0.045 0
0.04 0.045 0
0.04 0.05 0
0.035 0.045 0
0.035 0.05 0
0.035 0.04 0
0.035 0.045 0
0.03 0.04 0
0.03 0.045 0
0.035 0.045 0
0.035 0.05 0
0.03 0.045 0
0.03 0.05 0
0.04 0.05 0
0.04 0.055 0
0.035 0.05 0
0.035 0.055 0
0.04 0.055 0
0.04 0.06 0
0.035 0.055 0
0.035 0.06 0
0.035 0.05 0
0.035 0.055 0
0.03 0.05 0
0.03 0.055 0
0.035 0.055 0
0.035 0.06 0
0.03 0.055 0
0.03 0.06 0
0.05 0.04 0
0.05 0.045 0
0.045 0.04 0
0.045 0.045 0
0.05 0.045 0
0.05 0.05 0
0.045 0.045 0
0.045 0.05 0
0.045 0.04 0
0.045 0.045 0
0.04 0.04 0
0.04 0.045 0
0.045 0.045 0
0.045 0.05 0
0.04 0.045 0
0.04 0.05 0
0.06 0.04 0
0.06 0.045 0
0.055 0.04 0
0.055 0.045 0
0.06 0.045 0
0.06 0.05 0
0.055 0.045 0
0.055 0.05 0
0.055 0.04 0
0.055 0.045 0
0.05 0.04 0
0.05 0.045 0
0.055 0.045 0
0.055 0.05 0
0.05 0.045 0
0.05 0.05 0
0.06 0.05 0
0.06 0.055 0
0.055 0.05 0
0.055 0.055 0
0.06 0.055 0
0.06 0.06 0
0.055 0.055 0
0.055 0.06 0
0.055 0.05 0
0.055 0.055 0
0.05 0.05 0
0.05 0.055 0
0.055 0.055 0
0.055 0.06 0
0.05 0.055 0
0.05 0.06 0
0.05 0.05 0
0.05 0.055 0
0.045 0.05 0
0.045 0.055 0
0.05 0.055 0
0.05 0.06 0
0.045 0.055 0
0.045 0.06 0
0.045 0.05 0
0.045 0.055 0
0.04 0.05 0
0.04 0.055 0
0.045 0.055 0
0.045 0.06 0
0.04 0.055 0
0.04 0.06 0
0.87 0.09 0
0.875 0.09 0
0.87 0.095 0
0.875 0.095 0
0.875 0.09 0
0.88 0.09 0
0.875 0.095 0
0.88 0.095 0
0.87 0.095 0
0.875 0.095 0
0.87 0.1 0
0.875 0.1 0
0.875 0.095 0
0.88 0.095 0
0.875 0.1 0
0.88 0.1 0
0.86 0.09 0
0.865 0.09 0
0.86 0.095 0
0.865 0.095 0
0.865 0.09 0
0.87 0.09 0
0.865 0.095 0
0.87 0.095 0
0.86 0.095 0
0.865 0.095 0
0.86 0.1 0
0.865 0.1 0
0.865 0.095 0
0.87 0.095 0
0.865 0.1 0
0.87 0.1 0
0.86 0.08 0
0.865 0.08 0
0.86 0.085 0
0.865 0.085 0
0.865 0.08 0
0.87 0.08 0
0.865 0.085 0
0.87 0.085 0
0.86 0.085 0
0.865 0.085 0
0.86 0.09 0
0.865 0.09 0
0.865 0.085 0
0.87 0.085 0
0.865 0.09 0
0.87 0.09 0
0.87 0.08 0
0.875 0.08 0
0.87 0.085 0
0.875 0.085 0
0.875 0.08 0
0.88 0.08 0
0.875 0.085 0
0.88 0.085 0
0.87 0.085 0
0.875 0.085 0
0.87 0.09 0
0.875 0.09 0
0.875 0.085 0
0.88 0.085 0
0.875 0.09 0
0.88 0.09 0
0.04 0.17 0
0.035 0.17 0
0.04 0.165 0
0.035 0.165 0
0.035 0.17 0
0.03 0.17 0
0.035 0.165 0
0.03 0.165 0
0.04 0.165 0
0.035 0.165 0
0.04 0.16 0
0.035 0.16 0
0.035 0.165 0
0.03 0.165 0
0.035 0.16 0
0.03 0.16 0
0.04 0.18 0
0.035 0.18 0
0.04 0.175 0
0.035 0.175 0
0.035 0.18 0
0.03 0.18 0
0.035 0.175 0
0.03 0.175 0
0.04 0.175 0
0.035 0.175 0
0.04 0.17 0
0.035 0.17 0
0.035 0.175 0
0.03 0.175 0
0.035 0.17 0
0.03 0.17 0
0.03 0.18 0
0.025 0.18 0
0.03 0.175 0
0.025 0.175 0
0.025 0.18 0
0.02 0.18 0
0.025 0.175 0
0.02 0.175 0
0.03 0.175 0
0.025 0.175 0
0.03 0.17 0
0.025 0.17 0
0.025 0.175 0
0.02 0.175 0
0.025 0.17 0
0.02 0.17 0
0.03 0.17 0
0.025 0.17 0
0.03 0.165 0
0.025 0.165 0
0.025 0.17 0
0.02 0.17 0
0.025 0.165 0
0.02 0.165 0
0.03 0.165 0
0.025 0.165 0
0.03 0.16 0
0.025 0.16 0
0.025 0.165 0
0.02 0.165 0
0.025 0.16 0
0.02 0.16 0
0.07 0.14 0
0.07 0.145 0
0.065 0.14 0
0.065 0.145 0
0.07 0.145 0
0.07 0.15 0
0.065 0.145 0
0.065 0.15 0
0.065 0.14 0
0.065 0.145 0
0.06 0.14 0
0.06 0.145 0
0.065 0.145 0
0.065 0.15 0
0.06 0.145 0
0.06 0.15 0
0.08 0.14 0
0.08 0.145 0
0.075 0.14 0
0.075 0.145 0
0.08 0.145 0
0.08 0.15 0
0.075 0.145 0
0.075 0.15 0
0.075 0.14 0
0.075 0.145 0
0.07 0.14 0
0.07 0.145 0
0.075 0.145 0
0.075 0.15 0
0.07 0.145 0
0.07 0.15 0
0.08 0.15 0
0.08 0.155 0
0.075 0.15 0
0.075 0.155 0
0.08 0.155 0
0.08 0.16 0
0.075 0.155 0
0.075 0.16 0
0.075 0.15 0
0.075 0.155 0
0.07 0.15 0
0.07 0.155 0
0.075 0.155 0
0.075 0.16 0
0.07 0.155 0
0.07 0.16 0
0.07 0.15 0
0.07 0.155 0
0.065 0.15 0
0.065 0.155 0
0.07 0.155 0
0.07 0.16 0
0.065 0.155 0
0.065 0.16 0
0.065 0.15 0
0.065 0.155 0
0.06 0.15 0
0.06 0.155 0
0.065 0.155 0
0.065 0.16 0
0.06 0.155 0
0.06 0.16 0
0.46 0.18 0
0.465 0.18 0
0.46 0.185 0
0.465 0.185 0
0.465 0.18 0
0.47 0.18 0
0.465 0.185 0
0.47 0.185 0
0.46 0.185 0
0.465 0.185 0
0.46 0.19 0
0.465 0.19 0
0.465 0.185 0
0.47 0.185 0
0.465 0.19 0
0.47 0.19 0
0.47 0.18 0
0.475 0.18 0
0.47 0.185 0
0.475 0.185 0
0.475 0.18 0
0.48 0.18 0
0.475 0.185 0
0.48 0.185 0
0.47 0.185 0
0.475 0.185 0
0.47 0.19 0
0.475 0.19 0
0.475 0.185 0
0.48 0.185 0
0.475 0.19 0
0.48 0.19 0
0.85 0.11 0
0.845 0.11 0
0.85 0.105 0
0.845 0.105 0
0.845 0.11 0
0.84 0.11 0
0.845 0.105 0
0.84 0.105 0
0.85 0.105 0
0.845 0.105 0
0.85 0.1 0
0.845 0.1 0
0.845 0.105 0
0.84 0.105 0
0.845 0.1 0
0.84 0.1 0
0.86 0.11 0
0.855 0.11 0
0.86 0.105 0
0.855 0.105 0
0.855 0.11 0
0.85 0.11 0
0.855 0.105 0
0.85 0.105 0
0.86 0.105 0
0.855 0.105 0
0.86 0.1 0
0.855 0.1 0
0.855 0.105 0
0.85 0.105 0
0.855 0.1 0
0.85 0.1 0
0.86 0.12 0
0.855 0.12 0
0.86 0.115 0
0.855 0.115 0
0.855 0.12 0
0.85 0.12 0
0.855 0.115 0
0.85 0.115 0
0.86 0.115 0
0.855 0.115 0
0.86 0.11 0
0.855 0.11 0
0.855 0.115 0
0.85 0.115 0
0.855 0.11 0
0.85 0.11 0
0.85 0.12 0
0.845 0.12 0
0.85 0.115 0
0.845 0.115 0
0.845 0.12 0
0.84 0.12 0
0.845 0.115 0
0.84 0.115 0
0.85 0.115 0
0.845 0.115 0
0.85 0.11 0
0.845 0.11 0
0.845 0.115 0
0.84 0.115 0
0.845 0.11 0
0.84 0.11 0
0.23 0.13 0
0.23 0.125 0
0.235 0.13 0
0.235 0.125 0
0.23 0.125 0
0.23 0.12 0
0.235 0.125 0
0.235 0.12 0
0.235 0.13 0
0.235 0.125 0
0.24 0.13 0
0.24 0.125 0
0.235 0.125 0
0.235 0.12 0
0.24 0.125 0
0.24 0.12 0
0.23 0.14 0
0.23 0.135 0
0.235 0.14 0
0.235 0.135 0
0.23 0.135 0
0.23 0.13 0
0.235 0.135 0
0.235 0.13 0
0.235 0.14 0
0.235 0.135 0
0.24 0.14 0
0.24 0.135 0
0.235 0.135 0
0.235 0.13 0
0.24 0.135 0
0.24 0.13 0
0.22 0.14 0
0.22 0.135 0
0.225 0.14 0
0.225 0.135 0
0.22 0.135 0
0.22 0.13 0
0.225 0.135 0
0.225 0.13 0
0.225 0.14 0
0.225 0.135 0
0.23 0.14 0
0.23 0.135 0
0.225 0.135 0
0.225 0.13 0
0.23 0.135 0
0.23 0.13 0
0.22 0.13 0
0.22 0.125 0
0.225 0.13 0
0.225 0.125 0
0.22 0.125 0
0.22 0.12 0
0.225 0.125 0
0.225 0.12 0
0.225 0.13 0
0.225 0.125 0
0.23 0.13 0
0.23 0.125 0
0.225 0.125 0
0.225 0.12 0
0.23 0.125 0
0.23 0.12 0
0.77 0.04 0
0.77 0.045 0
0.765 0.04 0
0.765 0.045 0
0.77 0.045 0
0.77 0.05 0
0.765 0.045 0
0.765 0.05 0
0.765 0.04 0
0.765 0.045 0
0.76 0.04 0
0.76 0.045 0
0.765 0.045 0
0.765 0.05 0
0.76 0.045 0
0.76 0.05 0
0.78 0.04 0
0.78 0.045 0
0.775 0.04 0
0.775 0.045 0
0.78 0.045 0
0.78 0.05 0
0.775 0.045 0
0.775 0.05 0
0.775 0.04 0
0.775 0.045 0
0.77 0.04 0
0.77 0.045 0
0.775 0.045 0
0.775 0.05 0
0.77 0.045 0
0.77 0.05 0
0.21 0.14 0
0.21 0.145 0
0.205 0.14 0
0.205 0.145 0
0.21 0.145 0
0.21 0.15 0
0.205 0.145 0
0.205 0.15 0
0.205 0.14 0
0.205 0.145 0
0.2 0.14 0
0.2 0.145 0
0.205 0.145 0
0.205 0.15 0
0.2 0.145 0
0.2 0.15 0
0.22 0.14 0
0.22 0.145 0
0.215 0.14 0
0.215 0.145 0
0.22 0.145 0
0.22 0.15 0
0.215 0.145 0
0.215 0.15 0
0.215 0.14 0
0.215 0.145 0
0.21 0.14 0
0.21 0.145 0
0.215 0.145 0
0.215 0.15 0
0.21 0.145 0
0.21 0.15 0
0.22 0.15 0
0.22 0.155 0
0.215 0.15 0
0.215 0.155 0
0.22 0.155 0
0.22 0.16 0
0.215 0.155 0
0.215 0.16 0
0.215 0.15 0
0.215 0.155 0
0.21 0.15 0
0.21 0.155 0
0.215 0.155 0
0.215 0.16 0
0.21 0.155 0
0.21 0.16 0
0.21 0.15 0
0.21 0.155 0
0.205 0.15 0
0.205 0.155 0
0.21 0.155 0
0.21 0.16 0
0.205 0.155 0
0.205 0.16 0
0.205 0.15 0
0.205 0.155 0
0.2 0.15 0
[...]
POINT_DATA 32000
SCALARS solution_0 double 1
LOOKUP_TABLE default
0.00509775 0.00437308 0.00509775 0.00437307 0.00437308 0.00359842 0.00437307 0.00359842 0.00509775 0.00437307 0.00509775 0.00437307 0.00437307 0.00359842 0.00437307 0.00359842 0.00639718 0.00577245 0.00639718 0.00577245 0.00577245 0.00509775 0.00577245 0.00509775 0.00639718 0.00577245 0.00639718 0.00577245 0.00577245 0.00509775 0.00577245 0.00509775 0.00639718 0.00577245 0.00639718 0.00577245 0.00577245 0.00509775 0.00577245 0.00509775 0.00639718 0.00577245 0.00639718 0.00577245 0.00577245 0.00509775 0.00577245 0.00509775 0.00509775 0.00437308 0.00509775 0.00437308 0.00437308 0.00359842 0.00437308 0.00359842 0.00509775 0.00437308 0.00509775 0.00437308 0.00437308 0.00359842 0.00437308 0.00359842 0.00989562 0.00989562 0.00997059 0.00997059 0.00989562 0.00989562 0.00997059 0.00997059 0.00997059 0.00997059 0.00999558 0.00999558 0.00997059 0.00997059 0.00999558 0.00999558 0.00959576 0.00959576 0.00977068 0.00977068 0.00959576 0.00959576 0.00977068 0.00977068 0.00977068 0.00977068 0.00989562 0.00989562 0.00977068 0.00977068 0.00989562 0.00989562 0.00989562 0.00989562 0.00997059 0.00997059 0.00989562 0.00989563 0.00997059 0.00997059 0.00997059 0.00997059 0.00999558 0.00999558 0.00997059 0.00997059 0.00999558 0.00999558 0.00989562 0.00989562 0.00997059 0.00997059 0.00989562 0.00989562 0.00997059 0.00997059 0.00997059 0.00997059 0.00999558 0.00999558 0.00997059 0.00997059 0.00999558 0.00999558 0.00959576 0.00959576 0.00977068 0.00977068 0.00959576 0.00959576 0.00977068 0.00977068 0.00977068 0.00977068 0.00989562 0.00989562 0.00977068 0.00977068 0.00989562 0.00989562 0.00959576 0.00959576 0.00977068 0.00977068 0.00959576 0.00959576 0.00977068 0.00977068 0.00977068 0.00977068 0.00989562 0.00989562 0.00977068 0.00977068 0.00989562 0.00989563 0.00749669 0.00697192 0.00749669 0.00697192 0.00697192 0.00639718 0.00697192 0.00639718 0.00749669 0.00697192 0.00749669 0.00697192 0.00697192 0.00639718 0.00697192 0.00639718 0.00839629 0.00797148 0.00839629 0.00797148 0.00797148 0.00749669 0.00797148 0.00749669 0.00839629 0.00797148 0.00839629 0.00797148 0.00797148 0.00749669 0.00797148 0.00749669 0.00749669 0.00697192 0.00749669 0.00697192 0.00697192 0.00639717 0.00697192 0.00639718 0.00749669 0.00697192 0.00749669 0.00697192 0.00697192 0.00639718 0.00697192 0.00639718 0.00639717 0.00697192 0.00639717 0.00697192 0.00697192 0.00749669 0.00697192 0.00749669 0.00639717 0.00697192 0.00639718 0.00697192 0.00697192 0.00749669 0.00697192 0.00749669 0.00639717 0.00697192 0.00639717 0.00697192 0.00697192 0.00749669 0.00697192 0.00749669 0.00639717 0.00697192 0.00639717 0.00697192 0.00697192 0.00749669 0.00697192 0.00749669 0.00749669 0.00797147 0.00749669 0.00797147 0.00797147 0.00839629 0.00797147 0.00839629 0.00749669 0.00797147 0.00749669 0.00797147 0.00797147 0.00839629 0.00797147 0.00839629 0.00639717 0.00697192 0.00639717 0.00697192 0.00697192 0.00749668 0.00697192 0.00749669 0.00639717 0.00697192 0.00639717 0.00697192 0.00697192 0.00749669 0.00697192 0.00749669 0.00639717 0.00697192 0.00639717 0.00697192 0.00697192 0.00749668 0.00697192 0.00749668 0.00639717 0.00697192 0.00639717 0.00697192 0.00697192 0.00749668 0.00697192 0.00749668 0.00749668 0.00797147 0.00749668 0.00797147 0.00797147 0.00839629 0.00797147 0.00839629 0.00749668 0.00797147 0.00749668 0.00797147 0.00797147 0.00839629 0.00797147 0.00839629 0.00749668 0.00797147 0.00749669 0.00797147 0.00797147 0.00839629 0.00797147 0.00839629 0.00749669 0.00797147 0.00749669 0.00797147 0.00797147 0.00839629 0.00797147 0.00839629 0.00989566 0.00989567 0.00997063 0.00997064 0.00989567 0.00989568 0.00997064 0.00997065 0.00997063 0.00997064 0.00999562 0.00999563 0.00997064 0.00997065 0.00999563 0.00999564 0.00989564 0.00989565 0.00997061 0.00997062 0.00989565 0.00989566 0.00997062 0.00997063 0.00997061 0.00997062 0.0099956 0.00999561 0.00997062 0.00997063 0.00999561 0.00999562 0.00959577 0.00959578 0.0097707 0.0097707 0.00959578 0.00959578 0.0097707 0.00977071 0.0097707 0.0097707 0.00989564 0.00989565 0.0097707 0.00977071 0.00989565 0.00989566 0.00959578 0.00959579 0.00977071 0.00977072 0.00959579 0.0095958 0.00977072 0.00977073 0.00977071 0.00977072 0.00989566 0.00989567 0.00977072 0.00977073 0.00989567 0.00989568 0.00509775 0.00509775 0.00577245 0.00577245 0.00509775 0.00509775 0.00577245 0.00577245 0.00577245 0.00577245 0.00639717 0.00639718 0.00577245 0.00577245 0.00639718 0.00639718 0.00359841 0.00359841 0.00437307 0.00437307 0.00359841 0.00359841 0.00437307 0.00437307 0.00437307 0.00437307 0.00509775 0.00509775 0.00437307 0.00437307 0.00509775 0.00509775 0.00359841 0.00359842 0.00437307 0.00437307 0.00359842 0.00359842 0.00437307 0.00437307 0.00437307 0.00437307 0.00509775 0.00509775 0.00437307 0.00437307 0.00509775 0.00509775 0.00509775 0.00509775 0.00577245 0.00577245 0.00509775 0.00509775 0.00577245 0.00577245 0.00577245 0.00577245 0.00639718 0.00639718 0.00577245 0.00577245 0.00639718 0.00639718 0.00839629 0.00797148 0.00839629 0.00797148 0.00797148 0.00749669 0.00797148 0.00749669 0.00839629 0.00797148 0.00839629 0.00797148 0.00797148 0.00749669 0.00797148 0.00749669 0.00839629 0.00797148 0.00839629 0.00797148 0.00797148 0.00749669 0.00797148 0.00749669 0.00839629 0.00797148 0.00839629 0.00797148 0.00797148 0.00749669 0.00797148 0.00749669 0.00749669 0.00697192 0.00749669 0.00697192 0.00697192 0.00639717 0.00697192 0.00639717 0.00749669 0.00697192 0.00749669 0.00697192 0.00697192 0.00639717 0.00697192 0.00639717 0.00749669 0.00697192 0.00749669 0.00697192 0.00697192 0.00639717 0.00697192 0.00639717 0.00749669 0.00697192 0.00749669 0.00697192 0.00697192 0.00639717 0.00697192 0.00639717 0.00359841 0.00359841 0.00277377 0.00277377 0.00359841 0.00359841 0.00277377 0.00277377 0.00277377 0.00277377 0.00189916 0.00189916 0.00277377 0.00277377 0.00189916 0.00189916 0.00359841 0.00359841 0.00277377 0.00277377 0.00359841 0.00359841 0.00277377 0.00277377 0.00277377 0.00277377 0.00189916 0.00189916 0.00277377 0.00277377 0.00189916 0.00189916 0.00989564 0.00989563 0.0099706 0.0099706 0.00989563 0.00989563 0.0099706 0.0099706 0.0099706 0.0099706 0.00999559 0.00999559 0.0099706 0.0099706 0.00999559 0.00999559 0.00989564 0.00989564 0.00997061 0.00997061 0.00989564 0.00989564 0.00997061 0.0099706 0.00997061 0.00997061 0.0099956 0.0099956 0.00997061 0.0099706 0.0099956 0.00999559 0.00959577 0.00959577 0.0097707 0.00977069 0.00959577 0.00959576 0.00977069 0.00977069 0.0097707 0.00977069 0.00989564 0.00989564 0.00977069 0.00977069 0.00989564 0.00989564 0.00959576 0.00959576 0.00977069 0.00977069 0.00959576 0.00959576 0.00977069 0.00977068 0.00977069 0.00977069 0.00989564 0.00989563 0.00977069 0.00977068 0.00989563 0.00989563 0.00909598 0.00937086 0.00909598 0.00937086 0.00937086 0.00959576 0.00937086 0.00959576 0.00909598 0.00937086 0.00909598 0.00937086 0.00937086 0.00959576 0.00937086 0.00959576 0.00839629 0.00877112 0.00839629 0.00877112 0.00877112 0.00909598 0.00877112 0.00909598 0.00839629 0.00877112 0.00839629 0.00877112 0.00877112 0.00909598 0.00877112 0.00909598 0.00839629 0.00877112 0.00839629 0.00877112 0.00877112 0.00909598 0.00877112 0.00909598 0.00839629 0.00877112 0.00839629 0.00877112 0.00877112 0.00909598 0.00877112 0.00909598 0.00909598 0.00937086 0.00909598 0.00937086 0.00937086 0.00959576 0.00937086 0.00959576 0.00909598 0.00937086 0.00909598 0.00937086 0.00937086 0.00959576 0.00937086 0.00959576 0.00639717 0.00697192 0.00639717 0.00697192 0.00697192 0.00749668 0.00697192 0.00749668 0.00639717 0.00697192 0.00639717 0.00697192 0.00697192 0.00749668 0.00697192 0.00749668 0.00639717 0.00697192 0.00639717 0.00697192 0.00697192 0.00749668 0.00697192 0.00749668 0.00639717 0.00697192 0.00639717 0.00697192 0.00697192 0.00749668 0.00697192 0.00749668 0.00839629 0.00797148 0.00839629 0.00797148 0.00797148 0.00749669 0.00797148 0.00749669 0.00839629 0.00797148 0.00839629 0.00797148 0.00797148 0.00749669 0.00797148 0.00749669 0.00839629 0.00797148 0.00839629 0.00797148 0.00797148 0.00749669 0.00797148 0.00749669 0.00839629 0.00797148 0.00839629 0.00797148 0.00797148 0.00749669 0.00797148 0.00749669 0.00749669 0.00697192 0.00749669 0.00697192 0.00697192 0.00639717 0.00697192 0.00639717 0.00749669 0.00697192 0.00749669 0.00697192 0.00697192 0.00639717 0.00697192 0.00639717 0.00749669 0.00697192 0.00749669 0.00697192 0.00697192 0.00639717 0.00697192 0.00639717 0.00749669 0.00697192 0.00749669 0.00697192 0.00697192 0.00639717 0.00697192 0.00639717 0.0098957 0.00989572 0.00997068 0.0099707 0.00989572 0.00989574 0.0099707 0.00997072 0.00997068 0.0099707 0.00999567 0.00999569 0.0099707 0.00997072 0.00999569 0.00999571 0.00989568 0.00989569 0.00997065 0.00997066 0.00989569 0.0098957 0.00997066 0.00997068 0.00997065 0.00997066 0.00999564 0.00999565 0.00997066 0.00997068 0.00999565 0.00999567 0.0095958 0.0095958 0.00977073 0.00977074 0.0095958 0.00959582 0.00977074 0.00977075 0.00977073 0.00977074 0.00989568 0.00989569 0.00977074 0.00977075 0.00989569 0.0098957 0.00959582 0.00959583 0.00977075 0.00977077 0.00959583 0.00959585 0.00977077 0.00977079 0.00977075 0.00977077 0.0098957 0.00989572 0.00977077 0.00977079 0.00989572 0.00989574 0.00839629 0.00839629 0.00797148 0.00797148 0.00839629 0.00839629 0.00797148 0.00797148 0.00797148 0.00797148 0.00749669 0.00749669 0.00797148 0.00797148 0.00749669 0.00749669 0.00749669 0.00749669 0.00697192 0.00697192 0.00749669 0.00749669 0.00697192 0.00697192 0.00697192 0.00697192 0.00639717 0.00639717 0.00697192 0.00697192 0.00639717 0.00639717 0.00749669 0.00749669 0.00697192 0.00697192 0.00749669 0.00749669 0.00697192 0.00697192 0.00697192 0.00697192 0.00639717 0.00639717 0.00697192 0.00697192 0.00639717 0.00639717 0.00839629 0.00839629 0.00797148 0.00797148 0.00839629 0.00839629 0.00797148 0.00797148 0.00797148 0.00797148 0.00749669 0.00749669 0.00797148 0.00797148 0.00749669 0.00749669 0.00839629 0.00797148 0.00839629 0.00797148 0.00797148 0.00749669 0.00797148 0.00749669 0.00839629 0.00797148 0.00839629 0.00797148 0.00797148 0.00749669 0.00797148 0.00749669 0.00839629 0.00797148 0.00839629 0.00797148 0.00797148 0.00749669 0.00797148 0.00749669 0.00839629 0.00797148 0.00839629 0.00797148 0.00797148 0.00749669 0.00797148 0.00749669 0.00749669 0.00697192 0.00749669 0.00697192 0.00697192 0.00639717 0.00697192 0.00639717 0.00749669 0.00697192 0.00749669 0.00697192 0.00697192 0.00639717 0.00697192 0.00639717 0.00749669 0.00697192 0.00749669 0.00697192 0.00697192 0.00639717 0.00697192 0.00639717 0.00749669 0.00697192 0.00749669 0.00697192 0.00697192 0.00639717 0.00697192 0.00639717 0.00509775 0.00509775 0.00577245 0.00577245 0.00509775 0.00509775 0.00577245 0.00577245 0.00577245 0.00577245 0.00639717 0.00639717 0.00577245 0.00577245 0.00639717 0.00639717 0.00359841 0.00359841 0.00437307 0.00437307 0.00359841 0.00359841 0.00437307 0.00437307 0.00437307 0.00437307 0.00509775 0.00509775 0.00437307 0.00437307 0.00509775 0.00509775 0.00359841 0.00359841 0.00437307 0.00437307 0.00359841 0.00359841 0.00437307 0.00437307 0.00437307 0.00437307 0.00509775 0.00509775 0.00437307 0.00437307 0.00509775 0.00509775 0.00509775 0.00509775 0.00577245 0.00577245 0.00509775 0.00509775 0.00577245 0.00577245 0.00577245 0.00577245 0.00639717 0.00639717 0.00577245 0.00577245 0.00639717 0.00639717 0.00959616 0.00959623 0.00977114 0.00977121 0.00959623 0.0095963 0.00977121 0.00977129 0.00977114 0.00977121 0.00989612 0.0098962 0.00977121 0.00977129 0.0098962 0.00989628 0.0095963 0.00959639 0.00977129 0.00977138 0.00959639 0.00959648 0.00977138 0.00977147 0.00977129 0.00977138 0.00989628 0.00989637 0.00977138 0.00977147 0.00989637 0.00989647 0.00989628 0.00989637 0.00997128 0.00997137 0.00989637 0.00989647 0.00997137 0.00997147 0.00997128 0.00997137 0.00999627 0.00999637 0.00997137 0.00997147 0.00999637 0.00999647 0.00989612 0.0098962 0.00997111 0.00997119 0.0098962 0.00989628 0.00997119 0.00997128 0.00997111 0.00997119 0.0099961 0.00999619 0.00997119 0.00997128 0.00999619 0.00999627 0.00509775 0.00437307 0.00509775 0.00437307 0.00437307 0.00359841 0.00437307 0.00359841 0.00509775 0.00437307 0.00509775 0.00437307 0.00437307 0.00359841 0.00437307 0.00359841 0.00509775 0.00437307 0.00509775 0.00437307 0.00437307 0.00359841 0.00437307 0.00359841 0.00509775 0.00437307 0.00509775 0.00437307 0.00437307 0.00359841 0.00437307 0.00359841 0.00639717 0.00577245 0.00639717 0.00577245 0.00577245 0.00509775 0.00577245 0.00509775 0.00639717 0.00577245 0.00639717 0.00577245 0.00577245 0.00509775 0.00577245 0.00509775 0.00909684 0.00909675 0.00937185 0.00937176 0.00909675 0.00909666 0.00937176 0.00937167 0.00937185 0.00937176 0.00959685 0.00959676 0.00937176 0.00937167 0.00959676 0.00959667 0.00839683 0.00839675 0.00877184 0.00877175 0.00839675 0.00839666 0.00877175 0.00877166 0.00877184 0.00877175 0.00909684 0.00909675 0.00877175 0.00877166 0.00909675 0.00909666 0.00839666 0.00839659 0.00877166 0.00877158 0.00839659 0.00839653 0.00877158 0.00877151 0.00877166 0.00877158 0.00909666 0.00909658 0.00877158 0.00877151 0.00909658 0.00909649 0.00909666 0.00909658 0.00937167 0.00937157 0.00909658 0.00909649 0.00937157 0.00937148 0.00937167 0.00937157 0.00959667 0.00959657 0.00937157 0.00937148 0.00959657 0.00959648 0.00839629 0.00877112 0.00839629 0.00877112 0.00877112 0.00909598 0.00877112 0.00909598 0.00839629 0.00877112 0.00839629 0.00877112 0.00877112 0.00909598 0.00877112 0.00909598 0.00749668 0.00749668 0.00797147 0.00797147 0.00749668 0.00749668 0.00797147 0.00797147 0.00797147 0.00797147 0.00839629 0.00839629 0.00797147 0.00797147 0.00839629 0.00839629 0.00639717 0.00639717 0.00697192 0.00697192 0.00639717 0.00639717 0.00697192 0.00697192 0.00697192 0.00697192 0.00749668 0.00749668 0.00697192 0.00697192 0.00749668 0.00749668 0.00639717 0.00639717 0.00697192 0.00697192 0.00639717 0.00639717 0.00697192 0.00697192 0.00697192 0.00697192 0.00749668 0.00749668 0.00697192 0.00697192 0.00749668 0.00749668 0.00749668 0.00749668 0.00797147 0.00797147 0.00749668 0.00749668 0.00797147 0.00797147 0.00797147 0.00797147 0.00839629 0.00839629 0.00797147 0.00797147 0.00839629 0.00839629 0.00509775 0.00577245 0.00509775 0.00577245 0.00577245 0.00639717 0.00577245 0.00639717 0.00509775 0.00577245 0.00509775 0.00577245 0.00577245 0.00639717 0.00577245 0.00639717 0.00359841 0.00437307 0.00359841 0.00437307 0.00437307 0.00509775 0.00437307 0.00509775 0.00359841 0.00437307 0.00359841 0.00437307 0.00437307 0.00509775 0.00437307 0.00509775 0.00359841 0.00437307 0.00359841 0.00437307 0.00437307 0.00509775 0.00437307 0.00509775 0.00359841 0.00437307 0.00359841 0.00437307 0.00437307 0.00509775 0.00437307 0.00509775 0.00509775 0.00577245 0.00509775 0.00577245 0.00577245 0.00639717 0.00577245 0.00639717 0.00509775 0.00577245 0.00509775 0.00577245 0.00577245 0.00639717 0.00577245 0.00639717 0.00909598 0.00909598 0.00937086 0.00937086 0.00909598 0.00909598 0.00937086 0.00937086 0.00937086 0.00937086 0.00959576 0.00959576 0.00937086 0.00937086 0.00959576 0.00959576 0.00909598 0.00909598 0.00937086 0.00937086 0.00909598 0.00909598 0.00937086 0.00937086 0.00937086 0.00937086 0.00959576 0.00959576 0.00937086 0.00937086 0.00959576 0.00959576 0.00839629 0.00839629 0.00877112 0.00877112 0.00839629 0.00839629 0.00877112 0.00877112 0.00877112 0.00877112 0.00909598 0.00909598 0.00877112 0.00877112 0.00909598 0.00909598 0.00839629 0.00839629 0.00877112 0.00877112 0.00839629 0.00839629 0.00877112 0.00877112 0.00877112 0.00877112 0.00909598 0.00909598 0.00877112 0.00877112 0.00909598 0.00909598 0.00959585 0.00937093 0.00959587 0.00937095 0.00937093 0.00909603 0.00937095 0.00909604 0.00959587 0.00937095 0.00959589 0.00937097 0.00937095 0.00909604 0.00937097 0.00909606 0.00909603 0.00877115 0.00909604 0.00877116 0.00877115 0.00839629 0.00877116 0.00839629 0.00909604 0.00877116 0.00909606 0.00877116 0.00877116 0.00839629 0.00877116 0.00839629 0.00909606 0.00877116 0.00909607 0.00877118 0.00877116 0.00839629 0.00877118 0.0083963 0.00909607 0.00877118 0.0090961 0.00877119 0.00877118 0.0083963 0.00877119 0.00839631 0.00959589 0.00937097 0.00959592 0.00937099 0.00937097 0.00909606 0.00937099 0.00909607 0.00959592 0.00937099 0.00959596 0.00937102 0.00937099 0.00909607 0.00937102 0.0090961 0.00839629 0.00839629 0.00797148 0.00797148 0.00839629 0.00839629 0.00797148 0.00797148 0.00797148 0.00797148 0.00749669 0.00749669 0.00797148 0.00797148 0.00749669 0.00749669 0.00749669 0.00749669 0.00697192 0.00697192 0.00749669 0.00749669 0.00697192 0.00697192 0.00697192 0.00697192 0.00639717 0.00639717 0.00697192 0.00697192 0.00639717 0.00639717 0.00749669 0.00749669 0.00697192 0.00697192 0.00749669 0.00749669 0.00697192 0.00697192 0.00697192 0.00697192 0.00639717 0.00639717 0.00697192 0.00697192 0.00639717 0.00639717 0.00839629 0.00839629 0.00797148 0.00797148 0.00839629 0.00839629 0.00797148 0.00797148 0.00797148 0.00797148 0.00749669 0.00749669 0.00797148 0.00797148 0.00749669 0.00749669 0.00749668 0.00797147 0.00749668 0.00797147 0.00797147 0.00839629 0.00797147 0.00839629 0.00749668 0.00797147 0.00749668 0.00797147 0.00797147 0.00839629 0.00797147 0.00839629 0.00749668 0.00797147 0.00749668 0.00797147 0.00797147 0.00839629 0.00797147 0.00839629 0.00749668 0.00797147 0.00749668 0.00797147 0.00797147 0.00839629 0.00797147 0.00839629 0.00639717 0.00697192 0.00639717 0.00697192 0.00697192 0.00749668 0.00697192 0.00749668 0.00639717 0.00697192 0.00639717 0.00697192 0.00697192 0.00749668 0.00697192 0.00749668 0.00639717 0.00697192 0.00639717 0.00697192 0.00697192 0.00749668 0.00697192 0.00749668 0.00639717 0.00697192 0.00639717 0.00697192 0.00697192 0.00749668 0.00697192 0.00749668 0.00749669 0.00749669 0.00697192 0.00697192 0.00749669 0.00749669 0.00697192 0.00697192 0.00697192 0.00697192 0.00639717 0.00639717 0.00697192 0.00697192 0.00639717 0.00639717 0.00989563 0.00997059 0.00989563 0.00997059 0.00997059 0.00999558 0.00997059 0.00999558 0.00989563 0.00997059 0.00989563 0.00997059 0.00997059 0.00999558 0.00997059 0.00999558 0.00959576 0.00977068 0.00959576 0.00977068 0.00977068 0.00989563 0.00977068 0.00989563 0.00959576 0.00977068 0.00959576 0.00977068 0.00977068 0.00989563 0.00977068 0.00989563 0.00959576 0.00977068 0.00959576 0.00977068 0.00977068 0.00989563 0.00977068 0.00989563 0.00959576 0.00977068 0.00959576 0.00977068 0.00977068 0.00989563 0.00977068 0.00989563 0.00989563 0.0099706 0.00989563 0.0099706 0.0099706 0.00999559 0.0099706 0.00999559 0.00989563 0.0099706 0.00989563 0.00997059 0.0099706 0.00999559 0.00997059 0.00999558 0.00509775 0.00509775 0.00577245 0.00577245 0.00509775 0.00509775 0.00577245 0.00577245 0.00577245 0.00577245 0.00639717 0.00639717 0.00577245 0.00577245 0.00639717 0.00639717 0.00509775 0.00509775 0.00577245 0.00577245 0.00509775 0.00509775 0.00577245 0.00577245 0.00577245 0.00577245 0.00639717 0.00639717 0.00577245 0.00577245 0.00639717 0.00639717 0.00359841 0.00359841 0.00437307 0.00437307 0.00359841 0.00359841 0.00437307 0.00437307 0.00437307 0.00437307 0.00509775 0.00509775 0.00437307 0.00437307 0.00509775 0.00509775 0.00359841 0.00359841 0.00437307 0.00437307 0.00359841 0.00359841 0.00437307 0.00437307 0.00437307 0.00437307 0.00509775 0.00509775 0.00437307 0.00437307 0.00509775 0.00509775 0.00959576 0.00937086 0.00959576 0.00937086 0.00937086 0.00909598 0.00937086 0.00909598 0.00959576 0.00937086 0.00959576 0.00937086 0.00937086 0.00909598 0.00937086 0.00909598 0.00359841 0.00359841 0.00277377 0.00277377 0.00359841 0.00359841 0.00277377 0.00277377 0.00277377 0.00277377 0.00189916 0.00189916 0.00277377 0.00277377 0.00189916 0.00189916 0.00839629 0.00797148 0.00839629 0.00797148 0.00797148 0.00749669 0.00797148 0.00749669 0.00839629 0.00797148 0.00839629 0.00797148 0.00797148 0.00749669 0.00797148 0.00749669 0.00839629 0.00797148 0.00839629 0.00797148 0.00797148 0.00749669 0.00797148 0.00749669 0.00839629 0.00797148 0.00839629 0.00797148 0.00797148 0.00749669 0.00797148 0.00749669 0.00749669 0.00697192 0.00749669 0.00697192 0.00697192 0.00639717 0.00697192 0.00639717 0.0074966