# vtk DataFile Version 3.0
#This file was generated by the deal.II library on 2020/12/12 at 20:42:58
ASCII
DATASET UNSTRUCTURED_GRID

POINTS 25528 double
-13.0654 9.56144 0
-12.1916 9.42079 0
-13.0561 10.4348 0
-12.3435 10.31 0
-13.9392 9.7021 0
-13.0654 9.56144 0
-13.7687 10.5597 0
-13.0561 10.4348 0
-14.1096 8.84451 0
-13.0746 8.68805 0
-13.9392 9.7021 0
-13.0654 9.56144 0
-13.0746 8.68805 0
-12.0397 8.53159 0
-13.0654 9.56144 0
-12.1916 9.42079 0
-11.3778 -4.58678 0
-12.1551 -4.95182 0
-11.1051 -5.40063 0
-11.8176 -5.76034 0
-10.6004 -4.22174 0
-11.3778 -4.58678 0
-10.3926 -5.04092 0
-11.1051 -5.40063 0
-10.8083 -3.40256 0
-11.6505 -3.77293 0
-10.6004 -4.22174 0
-11.3778 -4.58678 0
-11.6505 -3.77293 0
-12.4927 -4.1433 0
-11.3778 -4.58678 0
-12.1551 -4.95182 0
-6.11045 -8.77924 0
-5.85746 -7.99763 0
-6.76256 -8.2998 0
-6.5839 -7.61018 0
-6.36345 -9.56085 0
-6.11045 -8.77924 0
-6.94122 -8.98943 0
-6.76256 -8.2998 0
-5.78567 -10.1323 0
-5.45834 -9.25867 0
-6.36345 -9.56085 0
-6.11045 -8.77924 0
-5.45834 -9.25867 0
-5.13101 -8.38508 0
-6.11045 -8.77924 0
-5.85746 -7.99763 0
0.479606 -4.79078 0
0.847319 -4.61225 0
0.312468 -4.42704 0
0.583417 -4.23827 0
0.111892 -4.96932 0
0.479606 -4.79078 0
0.0415191 -4.6158 0
0.312468 -4.42704 0
0.182266 -5.32283 0
0.646744 -5.15453 0
0.111892 -4.96932 0
0.479606 -4.79078 0
0.646744 -5.15453 0
1.11122 -4.98623 0
0.479606 -4.79078 0
0.847319 -4.61225 0
-9.02089 9.96417 0
-8.08309 10.3193 0
-9.37119 10.9985 0
-8.26452 11.2925 0
-9.37119 10.9985 0
-8.26452 11.2925 0
-9.72149 12.0329 0
-8.44595 12.2656 0
-10.4779 10.7046 0
-9.37119 10.9985 0
-10.997 11.8001 0
-9.72149 12.0329 0
-9.95869 9.60903 0
-9.02089 9.96417 0
-10.4779 10.7046 0
-9.37119 10.9985 0
0.141243 6.65798 0
-0.190973 6.101 0
0.689545 6.32089 0
0.330308 5.81124 0
0.473459 7.21496 0
0.141243 6.65798 0
1.04878 6.83053 0
0.689545 6.32089 0
-0.101865 7.5994 0
-0.407059 6.99508 0
0.473459 7.21496 0
0.141243 6.65798 0
-0.407059 6.99508 0
-0.712253 6.39077 0
0.141243 6.65798 0
-0.190973 6.101 0
-14.3694 13.8502 0
-14.5427 12.6333 0
-13.1589 13.7159 0
-13.4048 12.5429 0
-14.196 15.0671 0
-14.3694 13.8502 0
-12.9131 14.8889 0
-13.1589 13.7159 0
-15.479 15.2454 0
-15.5799 13.9846 0
-14.196 15.0671 0
-14.3694 13.8502 0
-15.5799 13.9846 0
-15.6807 12.7237 0
-14.3694 13.8502 0
-14.5427 12.6333 0
0.46567 5.04992 0
0.168645 4.63193 0
0.876105 4.74424 0
0.557127 4.36392 0
0.762696 5.4679 0
0.46567 5.04992 0
1.19508 5.12456 0
0.876105 4.74424 0
0.330308 5.81124 0
0.055235 5.35559 0
0.762696 5.4679 0
0.46567 5.04992 0
0.055235 5.35559 0
-0.219838 4.89994 0
0.46567 5.04992 0
0.168645 4.63193 0
-8.1571 -9.31088 0
-8.35977 -8.43209 0
-9.11259 -9.60724 0
-9.18316 -8.74457 0
-8.35977 -8.43209 0
-8.56243 -7.55331 0
-9.18316 -8.74457 0
-9.25373 -7.8819 0
-9.18316 -8.74457 0
-9.25373 -7.8819 0
-10.0066 -9.05704 0
-9.94504 -8.21048 0
-9.11259 -9.60724 0
-9.18316 -8.74457 0
-10.0681 -9.9036 0
-10.0066 -9.05704 0
-16.3679 -22.6494 0
-16.4198 -24.0542 0
-14.9526 -22.6347 0
-14.9617 -24.047 0
-16.3159 -21.2446 0
-16.3679 -22.6494 0
-14.9435 -21.2224 0
-14.9526 -22.6347 0
-17.6883 -21.2669 0
-17.7831 -22.6642 0
-16.3159 -21.2446 0
-16.3679 -22.6494 0
-17.7831 -22.6642 0
-17.8779 -24.0615 0
-16.3679 -22.6494 0
-16.4198 -24.0542 0
1.95819 19.6924 0
2.07127 20.8663 0
0.815259 19.7215 0
0.948874 20.8494 0
1.84511 18.5185 0
1.95819 19.6924 0
0.681645 18.5936 0
0.815259 19.7215 0
3.00857 18.4434 0
3.10112 19.6633 0
1.84511 18.5185 0
1.95819 19.6924 0
3.10112 19.6633 0
3.19367 20.8831 0
1.95819 19.6924 0
2.07127 20.8663 0
-4.99018 -0.211423 0
-4.70808 -0.615961 0
-4.57211 0.0488366 0
-4.30769 -0.345147 0
-4.70808 -0.615961 0
-4.42598 -1.0205 0
-4.30769 -0.345147 0
-4.04327 -0.739131 0
8.25251 -11.3587 0
9.00931 -12.2209 0
9.12099 -10.6468 0
9.91964 -11.4328 0
7.49571 -10.4965 0
8.25251 -11.3587 0
8.32233 -9.86077 0
9.12099 -10.6468 0
6.66908 -11.1322 0
7.38403 -12.0706 0
7.49571 -10.4965 0
8.25251 -11.3587 0
7.38403 -12.0706 0
8.09899 -13.009 0
8.25251 -11.3587 0
9.00931 -12.2209 0
8.09899 -13.009 0
9.00712 -14.1696 0
9.00931 -12.2209 0
9.9229 -13.2142 0
9.00712 -14.1696 0
9.91526 -15.3302 0
9.9229 -13.2142 0
10.8365 -14.2075 0
9.9229 -13.2142 0
10.8365 -14.2075 0
10.8387 -12.2587 0
11.7577 -13.0847 0
9.00931 -12.2209 0
9.9229 -13.2142 0
9.91964 -11.4328 0
10.8387 -12.2587 0
2.86611 10.5174 0
2.32084 9.73096 0
3.56597 9.88875 0
2.97321 9.21856 0
3.41138 11.3039 0
2.86611 10.5174 0
4.15872 10.5589 0
3.56597 9.88875 0
2.66404 12.0489 0
2.16626 11.1461 0
3.41138 11.3039 0
2.86611 10.5174 0
2.16626 11.1461 0
1.66847 10.2434 0
2.86611 10.5174 0
2.32084 9.73096 0
-5.45185 -0.481431 0
-5.14557 -0.95625 0
-4.99018 -0.211423 0
-4.70808 -0.615961 0
-5.91352 -0.751439 0
-5.58305 -1.29654 0
-5.45185 -0.481431 0
-5.14557 -0.95625 0
-5.58305 -1.29654 0
-5.25259 -1.84164 0
-5.14557 -0.95625 0
-4.83929 -1.43107 0
-7.64385 -1.68765 0
-7.25625 -2.21434 0
-7.14765 -1.18853 0
-6.77752 -1.78208 0
-8.14005 -2.18676 0
-7.73499 -2.64661 0
-7.64385 -1.68765 0
-7.25625 -2.21434 0
-7.73499 -2.64661 0
-7.32994 -3.10646 0
-7.25625 -2.21434 0
-6.86866 -2.74104 0
-7.25625 -2.21434 0
-6.86866 -2.74104 0
-6.77752 -1.78208 0
-6.40738 -2.37562 0
11.3046 -9.674 0
10.6121 -10.5534 0
12.5792 -10.33 0
11.709 -11.2944 0
10.6121 -10.5534 0
9.91964 -11.4328 0
11.709 -11.2944 0
10.8387 -12.2587 0
11.709 -11.2944 0
10.8387 -12.2587 0
12.8058 -12.0354 0
11.7577 -13.0847 0
12.5792 -10.33 0
11.709 -11.2944 0
13.8539 -10.986 0
12.8058 -12.0354 0
6.46794 6.56736 0
5.92428 7.27021 0
5.78392 6.01569 0
5.24998 6.70054 0
7.01159 5.86451 0
6.46794 6.56736 0
6.31786 5.33083 0
5.78392 6.01569 0
7.70531 6.39819 0
7.15195 7.11904 0
7.01159 5.86451 0
6.46794 6.56736 0
7.15195 7.11904 0
6.59859 7.83988 0
6.46794 6.56736 0
5.92428 7.27021 0
18.3015 -8.42645 0
16.7898 -8.85256 0
18.7694 -9.94245 0
17.2084 -10.318 0
7.51395 15.0241 0
7.04739 14.2267 0
8.53025 14.3092 0
7.93099 13.5023 0
7.04739 14.2267 0
6.58084 13.4293 0
7.93099 13.5023 0
7.33174 12.6954 0
7.93099 13.5023 0
7.33174 12.6954 0
8.81459 12.7779 0
8.08264 11.9614 0
8.53025 14.3092 0
7.93099 13.5023 0
9.54654 13.5944 0
8.81459 12.7779 0
42.7917 -22.6083 0
42.6141 -20.1099 0
40.4206 -22.6978 0
40.1808 -20.2278 0
42.9694 -25.1068 0
42.7917 -22.6083 0
40.6604 -25.1678 0
40.4206 -22.6978 0
45.2784 -25.0457 0
45.1629 -22.5188 0
42.9694 -25.1068 0
42.7917 -22.6083 0
45.1629 -22.5188 0
45.0474 -19.992 0
42.7917 -22.6083 0
42.6141 -20.1099 0
-2.10451 -3.55771 0
-1.94879 -3.15135 0
-2.52299 -3.39239 0
-2.33369 -2.99589 0
-2.26023 -3.96407 0
-2.10451 -3.55771 0
-2.71229 -3.78888 0
-2.52299 -3.39239 0
-1.80817 -4.13926 0
-1.68602 -3.72304 0
-2.26023 -3.96407 0
-2.10451 -3.55771 0
-1.68602 -3.72304 0
-1.56388 -3.30681 0
-2.10451 -3.55771 0
-1.94879 -3.15135 0
-4.46418 4.52729 0
-4.47848 5.12693 0
-5.08865 4.41578 0
-5.16758 5.10939 0
-4.47848 5.12693 0
-4.49278 5.72656 0
-5.16758 5.10939 0
-5.24651 5.803 0
-5.16758 5.10939 0
-5.24651 5.803 0
-5.85668 5.09185 0
-6.00024 5.87943 0
-5.08865 4.41578 0
-5.16758 5.10939 0
-5.71312 4.30426 0
-5.85668 5.09185 0
-6.62726 -0.486762 0
-6.53058 -0.969985 0
-6.14946 -0.288596 0
-5.91352 -0.751439 0
-6.72394 -0.00354 0
-6.62726 -0.486762 0
-6.3854 0.174247 0
-6.14946 -0.288596 0
-7.06247 -0.181327 0
-7.10506 -0.684929 0
-6.72394 -0.00354 0
-6.62726 -0.486762 0
-7.10506 -0.684929 0
-7.14765 -1.18853 0
-6.62726 -0.486762 0
-6.53058 -0.969985 0
-11.6843 -10.534 0
-11.3421 -9.37411 0
-12.811 -10.1587 0
-12.6162 -8.84462 0
-12.0264 -11.6938 0
-11.6843 -10.534 0
-13.0058 -11.4729 0
-12.811 -10.1587 0
-11.0469 -11.9148 0
-10.5575 -10.9092 0
-12.0264 -11.6938 0
-11.6843 -10.534 0
-10.5575 -10.9092 0
-10.0681 -9.9036 0
-11.6843 -10.534 0
-11.3421 -9.37411 0
-13.846 -2.92122 0
-13.5619 -3.67421 0
-13.1208 -2.63835 0
-12.8068 -3.39082 0
-14.5712 -3.20408 0
-14.3171 -3.95759 0
-13.846 -2.92122 0
-13.5619 -3.67421 0
-14.3171 -3.95759 0
-14.0631 -4.7111 0
-13.5619 -3.67421 0
-13.2779 -4.4272 0
-13.5619 -3.67421 0
-13.2779 -4.4272 0
-12.8068 -3.39082 0
-12.4927 -4.1433 0
1.74534 3.78085 0
1.53584 4.08276 0
1.43284 3.583 0
1.21069 3.79249 0
1.95483 3.47895 0
1.74534 3.78085 0
1.65498 3.3735 0
1.43284 3.583 0
2.25468 3.58439 0
2.05784 3.97871 0
1.95483 3.47895 0
1.74534 3.78085 0
2.05784 3.97871 0
1.86099 4.37302 0
1.74534 3.78085 0
1.53584 4.08276 0
-2.897 17.6627 0
-4.04849 17.7308 0
-3.0196 16.5232 0
-4.15098 16.595 0
-1.74551 17.5947 0
-2.897 17.6627 0
-1.88822 16.4514 0
-3.0196 16.5232 0
-1.60281 18.7379 0
-2.77441 18.8023 0
-1.74551 17.5947 0
-2.897 17.6627 0
-2.77441 18.8023 0
-3.946 18.8667 0
-2.897 17.6627 0
-4.04849 17.7308 0
3.00857 18.4434 0
1.84511 18.5185 0
2.81606 17.2931 0
1.67644 17.3652 0
1.84511 18.5185 0
0.681645 18.5936 0
1.67644 17.3652 0
0.536818 17.4374 0
1.67644 17.3652 0
0.536818 17.4374 0
1.50777 16.212 0
0.391992 16.2811 0
2.81606 17.2931 0
1.67644 17.3652 0
2.62355 16.1428 0
1.50777 16.212 0
1.35542 -6.83106 0
2.00219 -6.58625 0
1.08194 -6.19382 0
1.67682 -5.971 0
0.708642 -7.07587 0
1.35542 -6.83106 0
0.487064 -6.41663 0
1.08194 -6.19382 0
0.930221 -7.73511 0
1.62889 -7.4683 0
0.708642 -7.07587 0
1.35542 -6.83106 0
1.62889 -7.4683 0
2.32756 -7.2015 0
1.35542 -6.83106 0
2.00219 -6.58625 0
-1.08043 7.28181 0
-1.7538 7.56853 0
-1.3136 6.58202 0
-1.91495 6.77327 0
-0.407059 6.99508 0
-1.08043 7.28181 0
-0.712253 6.39077 0
-1.3136 6.58202 0
-0.101865 7.5994 0
-0.847259 7.98159 0
-0.407059 6.99508 0
-1.08043 7.28181 0
-0.847259 7.98159 0
-1.59265 8.36379 0
-1.08043 7.28181 0
-1.7538 7.56853 0
-3.19772 -6.94528 0
-2.50797 -6.64265 0
-3.52495 -6.48739 0
-2.97313 -6.25495 0
-3.52495 -6.48739 0
-2.97313 -6.25495 0
-3.85219 -6.02951 0
-3.43828 -5.86725 0
-4.07678 -6.71984 0
-3.52495 -6.48739 0
-4.26609 -6.19176 0
-3.85219 -6.02951 0
-3.88746 -7.24791 0
-3.19772 -6.94528 0
-4.07678 -6.71984 0
-3.52495 -6.48739 0
0.473459 7.21496 0
1.04878 6.83053 0
0.903681 7.81679 0
1.49405 7.39457 0
0.903681 7.81679 0
1.49405 7.39457 0
1.3339 8.41862 0
1.93932 7.9586 0
0.31331 8.23901 0
0.903681 7.81679 0
0.728486 8.87863 0
1.3339 8.41862 0
[...]
POINT_DATA 25528
SCALARS solution_0 double 1
LOOKUP_TABLE default
0.999412 0.999358 0.999676 0.999662 0.999469 0.999412 0.999695 0.999676 0.999246 0.999129 0.999469 0.999412 0.999129 0.999009 0.999412 0.999358 0.997221 0.997688 0.997584 0.997976 0.996652 0.997221 0.997115 0.997584 0.996277 0.996934 0.996652 0.997221 0.996934 0.997469 0.997221 0.997688 1.00087 1.00038 1.00009 0.999547 1.00123 1.00087 1.00052 1.00009 1.00192 1.00168 1.00123 1.00087 1.00168 1.00132 1.00087 1.00038 1.01662 1.01915 1.01711 1.0197 1.01426 1.01662 1.01481 1.01711 1.01372 1.01613 1.01426 1.01662 1.01613 1.0185 1.01662 1.01915 0.999901 1.00034 1.00029 1.00073 1.00029 1.00073 1.00059 1.00103 0.999974 1.00029 1.00027 1.00059 0.999564 0.999901 0.999974 1.00029 1.00985 1.00943 1.01187 1.01169 1.01002 1.00985 1.01183 1.01187 1.00841 1.00808 1.01002 1.00985 1.00808 1.00748 1.00985 1.00943 1.00033 1.00011 1.00044 1.00018 1.00053 1.00033 1.00067 1.00044 1.00041 1.00025 1.00053 1.00033 1.00025 1.00006 1.00033 1.00011 1.01399 1.0136 1.01695 1.01694 1.01403 1.01399 1.01665 1.01695 1.01169 1.0114 1.01403 1.01399 1.0114 1.01075 1.01399 1.0136 1.00023 0.999588 1.00011 0.999617 0.999588 0.998872 0.999617 0.999033 0.999617 0.999033 0.999653 0.999181 1.00011 0.999617 1.00005 0.999653 1.00083 1.00085 1.00104 1.00107 1.00086 1.00083 1.001 1.00104 1.00056 1.00067 1.00086 1.00083 1.00067 1.0007 1.00083 1.00085 1.0055 1.00534 1.00513 1.00501 1.00569 1.0055 1.00527 1.00513 1.00609 1.00585 1.00569 1.0055 1.00585 1.00565 1.0055 1.00534 0.981419 0.980371 0.978668 0.977082 0.980371 0.979851 0.977082 0.976109 1.01054 1.01004 1.01087 1.01037 1.01114 1.01054 1.01148 1.01087 1.01069 1.01011 1.01114 1.01054 1.01011 1.00962 1.01054 1.01004 1.00962 1.00911 1.01004 1.00955 1.00911 1.00869 1.00955 1.00914 1.00955 1.00914 1.00991 1.00953 1.01004 1.00955 1.01037 1.00991 1.00951 1.0098 1.01049 1.01083 1.00922 1.00951 1.01016 1.01049 1.00832 1.00858 1.00922 1.00951 1.00858 1.00882 1.00951 1.0098 0.983996 0.983377 0.981419 0.980371 0.986169 0.985913 0.983996 0.983377 0.985913 0.986312 0.983377 0.983464 0.991621 0.991607 0.990135 0.990064 0.992892 0.992884 0.991621 0.991607 0.992884 0.993053 0.991607 0.991858 0.991607 0.991858 0.990064 0.990411 1.01092 1.01069 1.01041 1.01021 1.01069 1.01037 1.01021 1.00991 1.01021 1.00991 1.00981 1.00953 1.01041 1.01021 1.01 1.00981 1.01458 1.01397 1.01576 1.01503 1.01492 1.01458 1.01619 1.01576 1.01392 1.01361 1.01492 1.01458 1.01361 1.01311 1.01458 1.01397 1.00984 1.01001 1.00955 1.00968 1.00836 1.00863 1.00879 1.00909 1.00863 1.00892 1.00909 1.00943 1.00909 1.00943 1.00951 1.00989 1.00879 1.00909 1.00917 1.00951 1.00725 1.00744 1.00727 1.00746 1.0071 1.00725 1.00713 1.00727 1.00708 1.00722 1.0071 1.00725 1.00722 1.00741 1.00725 1.00744 0.997515 0.995784 0.994191 0.992011 0.998714 0.997515 0.995834 0.994191 1.00202 1.0013 0.998714 0.997515 1.0013 1.00022 0.997515 0.995784 0.994184 0.995935 0.993672 0.995485 0.995935 0.997361 0.995485 0.996913 0.995485 0.996913 0.995297 0.996744 0.993672 0.995485 0.993482 0.995297 0.988229 0.988385 0.986602 0.986169 0.988326 0.988229 0.987283 0.986602 0.989276 0.989603 0.988326 0.988229 0.989603 0.990135 0.988229 0.988385 1.00006 0.99965 0.99984 0.999406 1.00036 1.00006 1.00018 0.99984 1.00059 1.00036 1.00036 1.00006 1.00036 1.00005 1.00006 0.99965 0.997658 0.997739 0.99726 0.997334 0.997998 0.998082 0.997658 0.997739 0.998082 0.9982 0.997739 0.997865 0.997739 0.997865 0.997334 0.997469 1.02612 1.02326 1.02693 1.02416 1.02906 1.02612 1.02966 1.02693 1.02816 1.02507 1.02906 1.02612 1.02507 1.02218 1.02612 1.02326 1.00398 1.00352 1.00399 1.00349 1.00446 1.00398 1.00451 1.00399 1.0044 1.00396 1.00446 1.00398 1.00396 1.00353 1.00398 1.00352 1.00609 1.00569 1.00631 1.00588 1.00569 1.00527 1.00588 1.00542 1.00588 1.00542 1.00609 1.00559 1.00631 1.00588 1.00657 1.00609 1.0136 1.01518 1.01447 1.01636 1.01189 1.0136 1.01249 1.01447 1.01133 1.01283 1.01189 1.0136 1.01283 1.01419 1.0136 1.01518 1.00629 1.00483 1.00562 1.00407 1.00808 1.00629 1.00748 1.00562 1.00841 1.00668 1.00808 1.00629 1.00668 1.00527 1.00629 1.00483 1.00254 1.00375 1.00135 1.00218 1.00135 1.00218 1.00001 1.00049 1.00076 1.00135 0.999657 1.00001 1.0017 1.00254 1.00076 1.00135 1.01002 1.01183 1.01015 1.01172 1.01015 1.01172 1.01011 1.01148 1.00872 1.01015 1.00883 1.01011 1.00841 1.01002 1.00872 1.01015 0.987301 0.989217 0.986607 0.988279 0.985556 0.987301 0.985018 0.986607 0.986312 0.988124 0.985556 0.987301 0.988124 0.990117 0.987301 0.989217 1.00265 1.00216 1.00243 1.00192 1.0032 1.00265 1.003 1.00243 1.00333 1.00281 1.0032 1.00265 1.00281 1.00234 1.00265 1.00216 1.01184 1.01249 1.01236 1.01311 1.01129 1.01184 1.01174 1.01236 1.01074 1.01121 1.01129 1.01184 1.01121 1.01176 1.01184 1.01249 1.00711 1.00974 1.00849 1.01176 1.00528 1.00663 1.00711 1.00974 1.00846 1.00883 1.0084 1.00872 1.0084 1.00872 1.00834 1.00862 1.00807 1.0084 1.00805 1.00834 1.00807 1.00846 1.00807 1.0084 1.00044 0.997954 1.00149 0.999413 1.00149 0.999413 1.00218 1.00049 1.00357 1.00149 1.00375 1.00218 1.00327 1.00044 1.00357 1.00149 0.991621 0.990135 0.992108 0.991042 0.992108 0.991042 0.992658 0.991921 0.99308 0.992108 0.993363 0.992658 0.992892 0.991621 0.99308 0.992108 0.993503 0.993075 0.991822 0.991166 0.993075 0.99273 0.991166 0.990527 0.991166 0.990527 0.989217 0.988279 0.991822 0.991166 0.990117 0.989217 1.01058 1.01027 1.01104 1.01071 1.01081 1.01058 1.01128 1.01104 1.01042 1.0102 1.01081 1.01058 1.0102 1.0099 1.01058 1.01027 1.00887 1.00999 1.00882 1.0098 1.00883 1.01011 1.00887 1.00999 1.01011 1.01148 1.00999 1.01117 1.00999 1.01117 1.0098 1.01083 0.998262 0.998156 0.998023 0.997762 0.998023 0.997762 0.997787 0.997295 0.998302 0.998023 0.998251 0.997787 0.99839 0.998262 0.998302 0.998023 0.994514 0.995136 0.993436 0.994128 0.994083 0.994514 0.993053 0.993436 0.994944 0.995389 0.994083 0.994514 0.995389 0.99595 0.994514 0.995136 1.00093 1.00117 1.00096 1.00121 1.00088 1.00111 1.00093 1.00117 1.00111 1.00138 1.00117 1.00143 1.00117 1.00143 1.00121 1.00147 1.00123 1.00121 1.00149 1.00147 1.00124 1.00123 1.0015 1.00149 1.001 1.00099 1.00124 1.00123 1.00099 1.00096 1.00123 1.00121 1.00792 1.00781 1.00815 1.00799 1.0077 1.00764 1.00792 1.00781 1.00764 1.00758 1.00781 1.0077 1.00781 1.0077 1.00799 1.00784 1.00551 1.00516 1.00543 1.00508 1.00564 1.00528 1.00551 1.00516 1.00528 1.0049 1.00516 1.00478 1.00516 1.00478 1.00508 1.0047 1.00056 1.00086 1.00055 1.00079 1.00086 1.001 1.00079 1.00094 1.00079 1.00094 1.00071 1.00088 1.00055 1.00079 1.00056 1.00071 0.998657 0.998339 0.998624 0.998315 0.998339 0.997972 0.998315 0.99797 0.998315 0.99797 0.998344 0.99801 0.998624 0.998315 0.998635 0.998344 1.01176 1.01234 1.01249 1.01322 1.01234 1.01301 1.01322 1.01409 1.01322 1.01409 1.01397 1.01503 1.01249 1.01322 1.01311 1.01397 1.00378 1.0032 1.0036 1.003 1.00441 1.00378 1.00426 1.0036 1.00451 1.0039 1.00441 1.00378 1.0039 1.00333 1.00378 1.0032 1.00657 1.00609 1.00686 1.00637 1.00609 1.00559 1.00637 1.00582 1.00637 1.00582 1.00668 1.00607 1.00686 1.00637 1.00718 1.00668 1.01579 1.01614 1.0174 1.0178 1.01513 1.01579 1.01657 1.0174 1.01397 1.01453 1.01513 1.01579 1.01453 1.01485 1.01579 1.01614 0.998579 0.999547 0.998393 0.999415 0.998393 0.999415 0.99821 0.999285 0.997301 0.998393 0.997067 0.99821 0.997538 0.998579 0.997301 0.998393 0.991226 0.990277 0.988331 0.987531 0.990277 0.989878 0.987531 0.98734 0.987531 0.98734 0.984162 0.98431 0.988331 0.987531 0.984708 0.984162 1.01453 1.01546 1.01486 1.01592 1.00647 1.00633 1.00673 1.00656 1.00668 1.00647 1.00699 1.00673 1.00632 1.00616 1.00668 1.00647 1.00616 1.00606 1.00647 1.00633 1.00527 1.00484 1.00542 1.00494 1.00484 1.0044 1.00494 1.00446 1.00494 1.00446 1.00505 1.00451 1.00542 1.00494 1.00559 1.00505 1.00192 1.00123 1.0015 1.00095 1.00123 1.00052 1.00095 1.00036 1.00095 1.00036 1.00074 1.00023 1.0015 1.00095 1.0012 1.00074 1.00188 1.00145 1.00212 1.00172 1.00212 1.00172 1.00229 1.00191 1.00258 1.00212 1.00272 1.00229 1.00239 1.00188 1.00258 1.00212 0.999915 0.999902 0.999881 0.999842 0.999881 0.999842 0.999695 0.999743 0.999922 0.999881 0.999691 0.999695 0.999936 0.999915 0.999922 0.999881 0.990277 0.992799 0.989878 0.992248 0.991226 0.993831 0.990277 0.992799 0.993831 0.995878 0.992799 0.994818 0.992799 0.994818 0.992248 0.994184 1.00386 1.00417 1.00326 1.00356 1.0045 1.00484 1.00386 1.00417 1.00484 1.00512 1.00417 1.00441 1.00417 1.00441 1.00356 1.00378 0.999266 0.999318 0.999502 0.999512 0.999318 0.999402 0.999512 0.999557 0.999512 0.999557 0.99968 0.999699 0.999502 0.999512 0.999681 0.99968 1.00844 1.00832 1.00914 1.00922 1.00914 1.00922 1.00986 1.01016 1.00902 1.00914 1.00957 1.00986 1.00847 1.00844 1.00902 1.00914 1.00379 1.00335 1.00382 1.00345 1.00335 1.00294 1.00345 1.00311 1.00345 1.00311 1.00352 1.00324 1.00382 1.00345 1.00384 1.00352 0.997628 0.997254 0.99778 0.997359 0.997254 0.996814 0.997359 0.996862 0.997359 0.996862 0.997566 0.996972 0.99778 0.997359 0.998062 0.997566 1.00512 1.00541 1.00441 1.0047 1.00541 1.00563 1.0047 1.00491 1.0047 1.00491 1.00406 1.00426 1.00441 1.0047 1.00378 1.00406 0.977299 0.981061 0.978823 0.981934 0.981061 0.98431 0.981934 0.984733 0.981934 0.984733 0.98313 0.985504 0.978823 0.981934 0.980592 0.98313 1.00712 1.00699 1.00719 1.00707 1.00731 1.00712 1.00736 1.00719 1.00724 1.00703 1.00731 1.00712 1.00703 1.00689 1.00712 1.00699 0.994818 0.996648 0.994184 0.995935 0.995878 0.997722 0.994818 0.996648 0.997722 0.999162 0.996648 0.99811 0.996648 0.99811 0.995935 0.997361 0.999885 0.999691 0.999823 0.999695 0.999823 0.999695 0.999704 0.999743 0.999354 0.999823 0.999484 0.999704 0.999326 0.999885 0.999354 0.999823 1.00881 1.00915 1.00782 1.008 1.00849 1.00881 1.00762 1.00782 1.00932 1.00977 1.00849 1.00881 1.00977 1.01027 1.00881 1.00915 0.989878 0.992248 0.989671 0.991851 0.992248 0.994184 0.991851 0.993672 0.991851 0.993672 0.991803 0.993482 0.989671 0.991851 0.989827 0.991803 0.997767 0.997131 0.998089 0.99742 0.998293 0.997767 0.998634 0.998089 0.998062 0.997566 0.998293 0.997767 0.997566 0.996972 0.997767 0.997131 1.00678 1.00652 1.007 1.00682 1.00652 1.00632 1.00682 1.00668 1.00682 1.00668 1.00708 1.00699 1.007 1.00682 1.00718 1.00708 1.0173 1.01576 1.01618 1.01503 0.98734 0.987385 0.98431 0.984733 0.989878 0.989671 0.98734 0.987385 0.989671 0.989827 0.987385 0.9878 0.987385 0.9878 0.984733 0.985504 0.998089 0.99742 0.99846 0.997803 0.99846 0.997803 0.998962 0.998338 0.99899 0.99846 0.999463 0.998962 0.998634 0.998089 0.99899 0.99846 1.00044 0.999636 0.997954 0.997044 1.00942 1.00904 1.00933 1.00899 1.00984 1.00942 1.00968 1.00933 1.01 1.0095 1.00984 1.00942 1.0095 1.00907 1.00942 1.00904 0.997115 0.997584 0.99746 0.9979 0.997584 0.997976 0.9979 0.998272 0.9979 0.998272 0.998285 0.998634 0.99746 0.9979 0.997869 0.998285 1.00238 1.00191 1.00528 1.00663 0.999815 0.997828 1.00238 1.00191 1.0012 1.00095 1.00128 1.00106 1.00095 1.00067 1.00106 1.00082 1.00106 1.00082 1.00119 1.001 1.00128 1.00106 1.00135 1.00119 1.0012 1.00156 1.00131 1.00164 1.00156 1.00195 1.00164 1.002 1.00164 1.002 1.00169 1.00203 1.00131 1.00164 1.00138 1.00169 0.997041 0.99746 0.997473 0.997869 0.996555 0.997041 0.997012 0.997473 0.996177 0.996677 0.996555 0.997041 0.996677 0.997115 0.997041 0.99746 1.00802 1.00828 1.00804 1.00831 1.00804 1.00831 1.00806 1.00835 1.0078 1.00804 1.0078 1.00806 1.00779 1.00802 1.0078 1.00804 0.994966 0.99483 0.994328 0.994133 0.994328 0.994133 0.993625 0.993363 0.994587 0.994328 0.993942 0.993625 0.995173 0.994966 0.994587 0.994328 1.00357 1.00375 1.00591 1.00594 1.00207 1.00171 1.00191 1.00154 1.00249 1.00207 1.00234 1.00191 1.00258 1.00219 1.00249 1.00207 1.00219 1.00183 1.00207 1.00171 0.994671 0.993793 0.99234 0.992001 0.995401 0.994671 0.99273 0.99234 0.997954 0.997044 0.995401 0.994671 0.997044 0.995834 0.994671 0.993793 1.00767 1.00768 1.00751 1.00754 1.00751 1.00754 1.00739 1.00742 1.00748 1.00751 1.00736 1.00739 1.00764 1.00767 1.00748 1.00751 1.00481 1.00465 1.00519 1.00503 1.00442 1.00426 1.00481 1.00465 1.00426 1.00412 1.00465 1.00452 1.00465 1.00452 1.00503 1.0049 1.01574 1.01628 1.01791 1.01869 1.01628 1.01665 1.01869 1.01932 1.01869 1.01932 1.02124 1.02218 1.01791 1.01869 1.02016 1.02124 1.01678 1.01808 1.01833 1.02003 1.01518 1.01678 1.01636 1.01833 1.01419 1.01552 1.01518 1.01678 1.01552 1.01657 1.01678 1.01808 0.979851 0.979816 0.976109 0.975794 1.01915 1.02225 1.0197 1.02324 1.0185 1.02116 1.01915 1.02225 0.982398 0.980444 0.980592 0.978043 0.984159 0.98267 0.982398 0.980444 0.98267 0.981419 0.980444 0.978668 0.980444 0.978668 0.978043 0.975589 1.00893 1.00881 1.00872 1.00862 1.00907 1.00893 1.00883 1.00872 1.00929 1.00914 1.00907 1.00893 1.00914 1.009 1.00893 1.00881 1.00965 1.00971 1.00945 1.00955 1.00945 1.00955 1.00927 1.00941 1.00932 1.00945 1.00911 1.00927 1.00957 1.00965 1.00932 1.00945 1.00278 1.003 1.00219 1.00243 1.00219 1.00243 1.00167 1.00192 1.00186 1.00219 1.00132 1.00167 1.00249 1.00278 1.00186 1.00219 0.993436 0.994128 0.992234 0.992876 0.992234 0.992876 0.990813 0.991399 0.991858 0.992234 0.990411 0.990813 0.993053 0.993436 0.991858 0.992234 0.999587 0.999716 0.999506 0.999666 0.999456 0.999587 0.999344 0.999506 0.999581 0.999683 0.999456 0.999587 0.999683 0.999788 0.999587 0.999716 1.00124 1.00096 1.00154 1.00131 1.001 1.00067 1.00124 1.00096 1.00067 1.00027 1.00096 1.00059 1.00096 1.00059 1.00131 1.00103 0.993887 0.994083 0.992884 0.993053 0.99383 0.993887 0.992892 0.992884 0.994643 0.994742 0.99383 0.993887 0.994742 0.994944 0.993887 0.994083 0.984409 0.98313 0.986359 0.985504 0.985757 0.984409 0.987354 0.986359 0.984159 0.982398 0.985757 0.984409 0.982398 0.980592 0.984409 0.98313 1.00309 1.00338 1.00249 1.00278 1.00378 1.00406 1.00309 1.00338 1.00406 1.00426 1.00338 1.0036 1.00338 1.0036 1.00278 1.003 0.990064 0.988305 0.989827 0.9878 0.990517 0.989002 0.990064 0.988305 0.989002 0.987354 0.988305 0.986359 0.988305 0.986359 0.9878 0.985504 0.998872 0.998322 0.999033 0.998624 0.998322 0.997869 0.998624 0.998285 0.998624 0.998285 0.998883 0.998634 0.999033 0.998624 0.999181 0.998883 0.999802 0.99984 0.99947 0.999406 0.999797 0.999802 0.99955 0.99947 1.00002 1.00009 0.999797 0.999802 1.00009 1.00018 0.999802 0.99984 1.0013 1.00504 1.00022 1.00369 1.00202 1.00593 1.0013 1.00504 1.00504 1.00915 1.00369 1.00727 1.00483 1.00389 1.00527 1.0039 1.0045 1.00386 1.00483 1.00389 1.00386 1.00326 1.00389 1.00299 1.00389 1.00299 1.0039 1.00262 0.990517 0.990064 0.992038 0.991802 0.990064 0.989827 0.991802 0.991803 0.991802 0.991803 0.993303 0.993482 0.992038 0.991802 0.993376 0.993303 1.00749 1.00753 1.00778 1.0078 1.00724 1.00731 1.00749 1.00753 1.00731 1.00736 1.00753 1.00756 1.00753 1.00756 1.0078 1.0078 1.00238 1.00528 1.00424 1.00711 1.00424 1.00711 1.00559 1.00849 1.00181 1.00424 1.00323 1.00559 0.999815 1.00238 1.00181 1.00424 1.00748 1.00562 1.00685 1.00485 1.00562 1.00407 1.00485 1.00321 1.00485 1.00321 1.00373 1.00201 1.00685 1.00485 1.00585 1.00373 1.00818 1.00794 1.00818 1.00794 1.00794 1.00773 1.00794 1.00773 1.00794 1.00773 1.00794 1.00774 1.00818 1.00794 1.00818 1.00794 1.00527 1.00451 1.00513 1.00441 1.00513 1.00441 1.00491 1.00426 1.00591 1.00513 1.00563 1.00491 1.00607 1.00527 1.00591 1.00513 0.997628 0.997096 0.997254 0.996758 0.997096 0.996577 0.996758 0.996253 0.996758 0.996253 0.996384 0.995937 0.997254 0.996758 0.996814 0.996384 1.00909 1.00856 1.00965 1.00901 1.00845 1.00799 1.00909 1.00856 1.00799 1.0076 1.00856 1.00811 1.00856 1.00811 1.00901 1.00849 0.999936 0.999922 0.999944 0.999928 0.999922 0.999691 0.999928 0.999708 0.999928 0.999708 0.999943 0.999728 0.999944 0.999928 0.999951 0.999943 1.01027 1.01077 1.00915 1.00947 1.01077 1.01133 1.00947 1.0098 1.00947 1.0098 1.00814 1.00825 1.00915 1.00947 1.008 1.00814 1.01007 1.00984 1.01042 1.0102 1.00977 1.00954 1.01007 1.00984 1.00954 1.00926 1.00984 1.00956 1.00984 1.00956 1.0102 1.0099 1.00656 1.00681 1.0063 1.00655 1.0063 1.00655 1.00608 1.00634 1.00601 1.0063 1.00579 1.00608 1.00628 1.00656 1.00601 1.0063 1.01395 1.01496 1.01378 1.01485 1.01312 1.01395 1.0129 1.01378 1.01321 1.01396 1.01312 1.01395 1.01396 1.01486 1.01395 1.01496 1.01492 1.01619 1.015 1.01621 1.01392 1.01492 1.01406 1.015 1.01309 1.0128 1.01392 1.01361 1.0124 1.01214 1.01309 1.0128 1.01214 1.01174 1.0128 1.01236 1.0128 1.01236 1.01361 1.01311 0.995596 0.995352 0.994128 0.993744 0.997067 0.996923 0.995596 0.995352 0.996923 0.996876 0.995352 0.995254 0.995352 0.995254 0.993744 0.993503 1.01021 1.01388 1.00915 1.01229 1.00915 1.01229 1.00727 1.00956 0.99512 0.994828 0.994574 0.994233 0.995623 0.995375 0.99512 0.994828 0.995375 0.995173 0.994828 0.994587 0.994828 0.994587 0.994233 0.993942 0.99273 0.99234 0.990527 0.989868 0.99234 0.992001 0.989868 0.98929 0.989868 0.98929 0.987073 0.985946 0.990527 0.989868 0.988279 0.987073 1.00564 1.00551 1.006 1.00585 1.00551 1.00543 1.00585 1.00576 1.00585 1.00576 1.00616 1.00606 1.006 1.00585 1.00632 1.00616 0.999361 0.998561 0.99811 0.997361 1.00042 0.999361 0.999162 0.99811 1.00138 1.00035 1.00042 0.999361 1.00035 0.999544 0.999361 0.998561 0.999954 0.999936 1.00005 1.00003 0.999936 0.999911 1.00003 1.00002 1.00003 1.00002 0.999998 0.999992 1.00005 1.00003 1 0.999998 1.00714 1.00699 1.0069 1.00673 1.0069 1.00673 1.00674 1.00656 1.00703 1.0069 1.00689 1.00674 1.00724 1.00714 1.00703 1.0069 1.00965 1.01022 1.0102 1.01083 1.01022 1.01069 1.01083 1.01133 1.01083 1.01133 1.01155 1.0121 1.0102 1.01083 1.01087 1.01155 1.00896 1.00874 1.00903 1.00878 1.00874 1.00851 1.00878 1.00853 1.00878 1.00853 1.00883 1.00855 1.00903 1.00878 1.00911 1.00883 1.00805 1.00805 1.00829 1.00829 1.00829 1.00829 1.00853 1.00855 1.00827 1.00829 1.00851 1.00853 1.00805 1.00805 1.00827 1.00829 1.03171 1.02816 1.03301 1.02906 1.03301 1.02906 1.03371 1.02966 1.00906 1.00911 1.00882 1.00883 1.00882 1.00883 1.00859 1.00855 1.00881 1.00882 1.00862 1.00859 1.009 1.00906 1.00881 1.00882 1.00771 1.00772 1.00757 1.00757 1.00772 1.00773 1.00757 1.00758 1.00757 1.00758 1.00746 1.00746 1.00757 1.00757 1.00745 1.00746 1.00154 1.00186 1.00098 1.00132 1.00112 1.00154 1.00054 1.00098 1.00181 1.0022 1.00112 1.00154 1.0022 1.00249 1.00154 1.00186 1.00158 1.00143 1.00183 1.00171 1.00135 1.00119 1.00158 1.00143 1.00119 1.001 1.00143 1.00124 1.00143 1.00124 1.00171 1.00154 1.00527 1.0039 1.00483 1.00338 1.0039 1.00262 1.00338 1.0021 1.00338 1.0021 1.00259 1.00138 1.00483 1.00338 1.00407 1.00259 0.999095 0.999309 0.999075 0.999267 0.999132 0.999389 0.999095 0.999309 0.999389 0.999484 0.999309 0.999445 0.999309 0.999445 0.999267 0.999361 0.995213 0.995401 0.993075 0.99273 0.995254 0.995213 0.993503 0.993075 0.996876 0.997212 0.995254 0.995213 0.997212 0.997954 0.995213 0.995401 1.00585 1.0067 1.00614 1.00695 1.00614 1.00695 1.00633 1.0071 1.00541 1.00614 1.00563 1.00633 1.00512 1.00585 1.00541 1.00614 0.995636 0.996235 0.995599 0.996277 0.994966 0.995636 0.99483 0.995599 0.995173 0.99577 0.994966 0.995636 0.99577 0.996301 0.995636 0.996235 0.999858 0.999894 1 1.00006 0.999846 0.999858 0.999986 1 0.999681 0.99968 0.999846 0.999858 0.99968 0.999699 0.999858 0.999894 0.993175 0.992713 0.994129 0.993763 0.993719 0.993175 0.994556 0.994129 0.992873 0.992172 0.993719 0.993175 0.992172 0.99157 0.993175 0.992713 1.00492 1.00485 1.00462 1.00459 1.00462 1.00459 1.00432 1.00433 1.00466 1.00462 1.00431 1.00432 1.00501 1.00492 1.00466 1.00462 1.00761 1.00738 1.00763 1.0073 1.00738 1.00717 1.0073 1.00701 1.0073 1.00701 1.00719 1.00681 1.00763 1.0073 1.00765 1.00719 0.982982 0.984882 0.980481 0.982706 0.985018 0.986607 0.982982 0.984882 0.986607 0.988279 0.984882 0.987073 1.00916 1.00921 1.00934 1.00937 1.00896 1.00903 1.00916 1.00921 1.00903 1.00911 1.00921 1.00927 1.00921 1.00927 1.00937 1.00941 1.00205 1.00191 1.00171 1.00159 1.00171 1.00159 1.00142 1.00131 1.00181 1.00171 1.0015 1.00142 1.00216 1.00205 1.00181 1.00171 1.00431 1.00432 1.00392 1.00394 1.00432 1.00433 1.00394 1.00395 1.00394 1.00395 1.00357 1.00358 1.00392 1.00394 1.00354 1.00357 0.999095 0.999075 0.998896 0.998892 0.998896 0.998892 0.998648 0.998635 0.998947 0.998896 0.998699 0.998648 0.999132