# vtk DataFile Version 3.0
#This file was generated by the deal.II library on 2020/12/12 at 20:11:59
ASCII
DATASET UNSTRUCTURED_GRID

POINTS 13068 double
-1.94568 2.00024 0
-2.36334 1.9803 0
-1.92625 1.571 0
-2.35099 1.55139 0
-1.52801 2.02019 0
-1.94568 2.00024 0
-1.50151 1.59061 0
-1.92625 1.571 0
-1.55452 2.44976 0
-1.96511 2.42948 0
-1.52801 2.02019 0
-1.94568 2.00024 0
-1.96511 2.42948 0
-2.3757 2.4092 0
-1.94568 2.00024 0
-2.36334 1.9803 0
-14.4425 -12.0257 0
-14.7227 -10.6395 0
-15.8534 -12.1658 0
-15.9945 -10.754 0
-14.1623 -13.4119 0
-14.4425 -12.0257 0
-15.7123 -13.5776 0
-15.8534 -12.1658 0
-12.6124 -13.2463 0
-13.0317 -11.8856 0
-14.1623 -13.4119 0
-14.4425 -12.0257 0
-13.0317 -11.8856 0
-13.451 -10.525 0
-14.4425 -12.0257 0
-14.7227 -10.6395 0
24.499 -1.839 0
25.7198 -0.226826 0
23.016 -0.58807 0
24.2438 0.770436 0
24.7681 -4.95576 0
25.982 -3.08992 0
23.2781 -3.45117 0
24.499 -1.839 0
25.982 -3.08992 0
27.1958 -1.22409 0
24.499 -1.839 0
25.7198 -0.226826 0
-13.2174 5.43234 0
-13.1619 4.38902 0
-12.1739 5.46496 0
-12.135 4.44839 0
-13.2729 6.47567 0
-13.2174 5.43234 0
-12.2129 6.48153 0
-12.1739 5.46496 0
-14.3329 6.4698 0
-14.2609 5.39973 0
-13.2729 6.47567 0
-13.2174 5.43234 0
-14.2609 5.39973 0
-14.1889 4.32966 0
-13.2174 5.43234 0
-13.1619 4.38902 0
-9.09454 -15.6392 0
-8.89627 -14.5214 0
-10.2552 -15.4133 0
-10.0167 -14.2635 0
-9.29281 -16.757 0
-9.09454 -15.6392 0
-10.4937 -16.5632 0
-10.2552 -15.4133 0
-8.09192 -16.9507 0
-7.9339 -15.865 0
-9.29281 -16.757 0
-9.09454 -15.6392 0
-7.9339 -15.865 0
-7.77588 -14.7793 0
-9.09454 -15.6392 0
-8.89627 -14.5214 0
30.7796 -10.8213 0
28.9194 -10.9442 0
30.8627 -12.7002 0
28.9692 -12.8365 0
32.6398 -10.6984 0
30.7796 -10.8213 0
32.7563 -12.564 0
30.8627 -12.7002 0
32.5234 -8.83281 0
30.6965 -8.94242 0
32.6398 -10.6984 0
30.7796 -10.8213 0
30.6965 -8.94242 0
28.8695 -9.05202 0
30.7796 -10.8213 0
28.9194 -10.9442 0
-14.5004 -23.9771 0
-14.231 -22.5518 0
-16.0682 -23.8443 0
-15.8039 -22.2097 0
-14.231 -22.5518 0
-13.9616 -21.1265 0
-15.8039 -22.2097 0
-15.5396 -20.5751 0
-15.8039 -22.2097 0
-15.5396 -20.5751 0
-17.3768 -21.8676 0
-17.1177 -20.0237 0
-16.0682 -23.8443 0
-15.8039 -22.2097 0
-17.636 -23.7114 0
-17.3768 -21.8676 0
17.9685 1.89061 0
18.7518 0.41169 0
19.325 2.95085 0
20.217 1.63809 0
19.325 2.95085 0
20.217 1.63809 0
20.6815 4.01109 0
21.6822 2.86448 0
18.433 4.26361 0
19.325 2.95085 0
19.6808 5.1577 0
20.6815 4.01109 0
17.1851 3.36953 0
17.9685 1.89061 0
18.433 4.26361 0
19.325 2.95085 0
9.57893 -6.10328 0
8.9928 -6.87214 0
10.4255 -6.61562 0
9.82833 -7.4392 0
8.9928 -6.87214 0
8.40668 -7.64099 0
9.82833 -7.4392 0
9.23119 -8.26277 0
9.82833 -7.4392 0
9.23119 -8.26277 0
10.6639 -8.00626 0
10.0557 -8.88456 0
10.4255 -6.61562 0
9.82833 -7.4392 0
11.272 -7.12796 0
10.6639 -8.00626 0
10.1011 -3.26994 0
10.4557 -2.42466 0
9.25607 -2.85094 0
9.54813 -1.96269 0
9.74656 -4.11521 0
10.1011 -3.26994 0
8.964 -3.7392 0
9.25607 -2.85094 0
10.5291 -4.49122 0
10.9462 -3.68893 0
9.74656 -4.11521 0
10.1011 -3.26994 0
10.9462 -3.68893 0
11.3632 -2.88664 0
10.1011 -3.26994 0
10.4557 -2.42466 0
4.32849 0.331035 0
4.81957 0.805139 0
3.85097 0.872772 0
4.3228 1.24892 0
3.8374 -0.143069 0
4.32849 0.331035 0
3.37914 0.496624 0
3.85097 0.872772 0
4.29567 -0.782761 0
4.80601 -0.210702 0
3.8374 -0.143069 0
4.32849 0.331035 0
4.80601 -0.210702 0
5.31634 0.361357 0
4.32849 0.331035 0
4.81957 0.805139 0
7.71213 -7.05077 0
7.01759 -6.46054 0
6.97315 -7.72585 0
6.21212 -7.05369 0
6.97315 -7.72585 0
6.21212 -7.05369 0
6.23417 -8.40094 0
5.40665 -7.64684 0
7.73419 -8.39801 0
6.97315 -7.72585 0
7.0617 -9.15503 0
6.23417 -8.40094 0
8.40668 -7.64099 0
7.71213 -7.05077 0
7.73419 -8.39801 0
6.97315 -7.72585 0
1.46689 7.00509 0
0.700541 7.2 0
1.30123 6.23625 0
0.533143 6.51829 0
2.23324 6.81018 0
1.46689 7.00509 0
2.06931 5.95421 0
1.30123 6.23625 0
2.39717 7.66614 0
1.63255 7.77393 0
2.23324 6.81018 0
1.46689 7.00509 0
1.63255 7.77393 0
0.867939 7.88171 0
1.46689 7.00509 0
0.700541 7.2 0
-12.9321 2.33577 0
-12.7139 1.304 0
-11.9345 2.47516 0
-11.7542 1.5887 0
-13.9296 2.19637 0
-13.6736 1.0193 0
-12.9321 2.33577 0
-12.7139 1.304 0
-13.6736 1.0193 0
-13.4177 -0.157771 0
-12.7139 1.304 0
-12.4958 0.272236 0
-12.7139 1.304 0
-12.4958 0.272236 0
-11.7542 1.5887 0
-11.5739 0.702244 0
-3.02811 -0.0719792 0
-2.98362 0.426461 0
-3.57342 -0.0961837 0
-3.51396 0.430646 0
-3.57342 -0.0961837 0
-3.51396 0.430646 0
-4.11872 -0.120388 0
-4.04429 0.434831 0
-3.63287 -0.623013 0
-3.57342 -0.0961837 0
-4.19315 -0.675607 0
-4.11872 -0.120388 0
-3.0726 -0.570419 0
-3.02811 -0.0719792 0
-3.63287 -0.623013 0
-3.57342 -0.0961837 0
-1.49005 -0.26819 0
-1.49373 -0.0391919 0
-1.72286 -0.271276 0
-1.72972 -0.0288004 0
-1.48637 -0.497189 0
-1.49005 -0.26819 0
-1.71601 -0.513751 0
-1.72286 -0.271276 0
-1.25673 -0.480626 0
-1.25723 -0.265105 0
-1.48637 -0.497189 0
-1.49005 -0.26819 0
-1.25723 -0.265105 0
-1.25774 -0.0495833 0
-1.49005 -0.26819 0
-1.49373 -0.0391919 0
-17.549 5.23861 0
-17.4472 4.13288 0
-16.4381 5.29438 0
-16.341 4.1955 0
-17.6507 6.34435 0
-17.549 5.23861 0
-16.5353 6.39326 0
-16.4381 5.29438 0
-18.7661 6.29543 0
-18.6598 5.18284 0
-17.6507 6.34435 0
-17.549 5.23861 0
-18.6598 5.18284 0
-18.5535 4.07026 0
-17.549 5.23861 0
-17.4472 4.13288 0
21.9144 4.98528 0
20.6815 4.01109 0
22.6028 3.71385 0
21.6822 2.86448 0
23.1473 5.95947 0
21.9144 4.98528 0
23.5235 4.56322 0
22.6028 3.71385 0
22.771 7.35572 0
21.2259 6.25671 0
23.1473 5.95947 0
21.9144 4.98528 0
21.2259 6.25671 0
19.6808 5.1577 0
21.9144 4.98528 0
20.6815 4.01109 0
-19.5865 -17.0293 0
-19.7606 -15.5594 0
-21.0534 -17.2704 0
-21.2055 -15.7679 0
-18.1197 -16.7882 0
-18.3156 -15.3509 0
-19.5865 -17.0293 0
-19.7606 -15.5594 0
-18.3156 -15.3509 0
-18.5116 -13.9136 0
-19.7606 -15.5594 0
-19.9346 -14.0895 0
-19.7606 -15.5594 0
-19.9346 -14.0895 0
-21.2055 -15.7679 0
-21.3576 -14.2653 0
14.3072 12.6236 0
13.0451 12.0387 0
14.7831 11.4711 0
14.0092 10.9042 0
15.5693 13.2084 0
14.3072 12.6236 0
15.557 12.038 0
14.7831 11.4711 0
15.5815 14.3788 0
13.8312 13.776 0
15.5693 13.2084 0
14.3072 12.6236 0
13.8312 13.776 0
12.0809 13.1733 0
14.3072 12.6236 0
13.0451 12.0387 0
6.78351 0.976631 0
6.2067 1.43437 0
6.32239 0.440501 0
5.76152 0.897862 0
6.32239 0.440501 0
5.76152 0.897862 0
5.86128 -0.0956297 0
5.31634 0.361357 0
6.88327 -0.0168603 0
6.32239 0.440501 0
6.40621 -0.552616 0
5.86128 -0.0956297 0
7.36032 0.518895 0
6.78351 0.976631 0
6.88327 -0.0168603 0
6.32239 0.440501 0
24.7681 -4.95576 0
23.2781 -3.45117 0
22.828 -5.84072 0
21.7048 -4.43964 0
23.2781 -3.45117 0
21.7881 -1.94658 0
21.7048 -4.43964 0
20.5816 -3.03856 0
21.7048 -4.43964 0
20.5816 -3.03856 0
20.1315 -5.42811 0
19.3752 -4.13054 0
22.828 -5.84072 0
21.7048 -4.43964 0
20.8878 -6.72567 0
20.1315 -5.42811 0
-1.17396 8.85175 0
-1.1096 9.54168 0
-1.87959 8.91371 0
-1.83762 9.60422 0
-1.23831 8.16182 0
-1.17396 8.85175 0
-1.92157 8.2232 0
-1.87959 8.91371 0
-0.555058 8.10044 0
-0.468316 8.78979 0
-1.23831 8.16182 0
-1.17396 8.85175 0
-0.468316 8.78979 0
-0.381574 9.47915 0
-1.17396 8.85175 0
-1.1096 9.54168 0
-5.79224 10.0734 0
-5.62038 9.27473 0
-4.97042 10.251 0
-4.85544 9.45793 0
-5.96409 10.8721 0
-5.79224 10.0734 0
-5.0854 11.0441 0
-4.97042 10.251 0
-6.84278 10.7001 0
-6.61405 9.89581 0
-5.96409 10.8721 0
-5.79224 10.0734 0
-6.61405 9.89581 0
-6.38532 9.09153 0
-5.79224 10.0734 0
-5.62038 9.27473 0
2.37012 -2.71097 0
2.93938 -2.57619 0
2.16472 -2.17557 0
2.66959 -2.05271 0
1.80086 -2.84575 0
2.37012 -2.71097 0
1.65985 -2.29844 0
2.16472 -2.17557 0
1.94188 -3.39306 0
2.57552 -3.24637 0
1.80086 -2.84575 0
2.37012 -2.71097 0
2.57552 -3.24637 0
3.20916 -3.09968 0
2.37012 -2.71097 0
2.93938 -2.57619 0
34.8082 -18.5914 0
34.8303 -16.3879 0
32.7539 -18.7219 0
32.8032 -16.5747 0
34.7861 -20.7949 0
34.8082 -18.5914 0
32.7046 -20.8692 0
32.7539 -18.7219 0
36.8675 -20.7206 0
36.8625 -18.4609 0
34.7861 -20.7949 0
34.8082 -18.5914 0
36.8625 -18.4609 0
36.8574 -16.2012 0
34.8082 -18.5914 0
34.8303 -16.3879 0
-12.7934 -14.7268 0
-12.6124 -13.2463 0
-14.1926 -14.8285 0
-14.1623 -13.4119 0
-14.1926 -14.8285 0
-14.1623 -13.4119 0
-15.5919 -14.9301 0
-15.7123 -13.5776 0
-14.2229 -16.245 0
-14.1926 -14.8285 0
-15.4715 -16.2827 0
-15.5919 -14.9301 0
-12.9744 -16.2073 0
-12.7934 -14.7268 0
-14.2229 -16.245 0
-14.1926 -14.8285 0
0.299942 0.531283 0
0.175014 0.412216 0
0.404588 0.425742 0
0.236416 0.299166 0
0.424871 0.650351 0
0.299942 0.531283 0
0.57276 0.552318 0
0.404588 0.425742 0
0.276982 0.748383 0
0.195297 0.636824 0
0.424871 0.650351 0
0.299942 0.531283 0
0.195297 0.636824 0
0.113611 0.525265 0
0.299942 0.531283 0
0.175014 0.412216 0
-0.306705 6.05721 0
-0.493579 5.44788 0
0.299895 5.85231 0
0.0666463 5.18634 0
-0.119832 6.66654 0
-0.306705 6.05721 0
0.533143 6.51829 0
0.299895 5.85231 0
-0.772807 6.8148 0
-0.913306 6.26211 0
-0.119832 6.66654 0
-0.306705 6.05721 0
-0.913306 6.26211 0
-1.0538 5.70942 0
-0.306705 6.05721 0
-0.493579 5.44788 0
-6.00811 4.4016 0
-6.00872 3.80884 0
-5.51564 4.10731 0
-5.47276 3.69556 0
-6.50058 4.69589 0
-6.54467 3.92212 0
-6.00811 4.4016 0
-6.00872 3.80884 0
-6.54467 3.92212 0
-6.58877 3.14836 0
-6.00872 3.80884 0
-6.00933 3.21608 0
-6.00872 3.80884 0
-6.00933 3.21608 0
-5.47276 3.69556 0
-5.42988 3.2838 0
1.04929 -1.08991 0
1.4015 -1.07371 0
1.11809 -0.749744 0
1.43642 -0.734979 0
0.980494 -1.43007 0
1.36657 -1.41244 0
1.04929 -1.08991 0
1.4015 -1.07371 0
1.36657 -1.41244 0
1.75265 -1.39481 0
1.4015 -1.07371 0
1.7537 -1.05751 0
1.4015 -1.07371 0
1.7537 -1.05751 0
1.43642 -0.734979 0
1.75475 -0.720214 0
-1.17426 12.9712 0
-0.193881 13.369 0
-1.41703 14.0426 0
-0.446844 14.3803 0
-0.193881 13.369 0
0.7865 13.7667 0
-0.446844 14.3803 0
0.523342 14.7179 0
-0.446844 14.3803 0
0.523342 14.7179 0
-0.699808 15.3916 0
0.260185 15.6691 0
-1.41703 14.0426 0
-0.446844 14.3803 0
-1.6598 15.114 0
-0.699808 15.3916 0
-2.6302 5.88292 0
-2.64429 5.41333 0
-2.10616 5.8816 0
-2.15693 5.41016 0
-3.15424 5.88424 0
-3.13165 5.41651 0
-2.6302 5.88292 0
-2.64429 5.41333 0
[...]
POINT_DATA 13068
SCALARS solution_0 double 1
LOOKUP_TABLE default
0.971203 0.970154 0.95819 0.960225 0.975532 0.971203 0.959714 0.95819 0.985675 0.980794 0.975532 0.971203 0.980794 0.978353 0.971203 0.970154 1.00012 0.999748 1.00008 0.999789 1.00046 1.00012 1.00035 1.00008 1.00067 1.00022 1.00046 1.00012 1.00022 0.999757 1.00012 0.999748 0.929665 0.848352 0.847329 0.849795 1.02818 0.990385 1.01232 0.929665 0.990385 0.88904 0.929665 0.848352 0.997598 0.997124 0.997222 0.996641 0.998083 0.997598 0.997811 0.997222 0.998339 0.997939 0.998083 0.997598 0.997939 0.997554 0.997598 0.997124 1.00219 1.00205 1.00175 1.00159 1.00229 1.00219 1.00187 1.00175 1.00276 1.00269 1.00229 1.00219 1.00269 1.00258 1.00219 1.00205 1.01066 1.01066 1.01014 1.01019 1.01066 1.01066 1.01014 1.01014 1.00969 1.01003 1.01066 1.01066 1.01003 1.01039 1.01066 1.01066 1.0014 1.00141 1.00111 1.00111 1.00141 1.00141 1.00111 1.00112 1.00111 1.00112 1.00069 1.00064 1.00111 1.00111 1.00071 1.00069 0.948379 0.794241 1.00986 0.908853 1.00986 0.908853 1.02855 0.99366 1.0274 1.00986 1.01752 1.02855 1.0272 0.948379 1.0274 1.00986 1.01617 1.01618 1.01522 1.01527 1.01618 1.01606 1.01527 1.0151 1.01527 1.0151 1.01453 1.01431 1.01522 1.01527 1.0145 1.01453 1.01755 1.03343 1.02394 1.02656 1.01471 1.01755 1.0153 1.02394 1.01484 1.01325 1.01471 1.01755 1.01325 1.02901 1.01755 1.03343 0.486889 0.754436 0.804193 0.976109 0.40685 0.486889 0.513431 0.804193 0.812639 0.520096 0.40685 0.486889 0.520096 0.563237 0.486889 0.754436 1.0171 1.0184 1.01685 1.0183 1.01685 1.0183 1.0163 1.01774 1.01572 1.01685 1.01517 1.0163 1.01606 1.0171 1.01572 1.01685 1.01693 1.01454 1.01882 1.01545 1.01897 1.01693 1.0218 1.01882 1.01688 1.01547 1.01897 1.01693 1.01547 1.01373 1.01693 1.01454 0.996256 0.995856 0.995571 0.995118 0.99685 0.996506 0.996256 0.995856 0.996506 0.99628 0.995856 0.995576 0.995856 0.995576 0.995118 0.99477 0.952413 0.952421 0.962215 0.961854 0.962215 0.961854 0.969012 0.968539 0.964904 0.962215 0.97113 0.969012 0.956007 0.952413 0.964904 0.962215 0.886867 0.880839 0.904675 0.900978 0.898753 0.886867 0.912865 0.904675 0.881073 0.862944 0.898753 0.886867 0.862944 0.852698 0.886867 0.880839 0.998827 0.998617 0.99855 0.998301 0.999047 0.998827 0.998814 0.99855 0.999065 0.998951 0.999047 0.998827 0.998951 0.99885 0.998827 0.998617 1.02247 1.02855 1.02051 0.99366 1.0153 1.02247 1.02283 1.02051 1.00856 1.01044 1.0153 1.02247 1.01044 1.01752 1.02247 1.02855 1.00058 1.00048 1 0.999931 1.00035 1.0002 1.00058 1.00048 1.0002 1.00005 1.00048 1.00036 1.00048 1.00036 0.999931 0.999856 1.01161 1.01202 1.01192 1.01226 1.01126 1.01161 1.01162 1.01192 1.01091 1.01125 1.01126 1.01161 1.01125 1.01166 1.01161 1.01202 0.825178 0.972728 0.627358 0.7951 0.627358 0.7951 0.557318 0.563237 0.59258 0.627358 0.700613 0.557318 0.677008 0.825178 0.59258 0.627358 1.02818 1.01232 1.01385 1.02569 1.01232 0.943023 1.02569 1.01337 1.02569 1.01337 1.01249 1.02521 1.01385 1.02569 1.00972 1.01249 1.0083 1.00823 1.00686 1.00695 1.00831 1.0083 1.00667 1.00686 1.01005 1.00981 1.00831 1.0083 1.00981 1.00954 1.0083 1.00823 1.00201 1.00155 1.00289 1.00248 1.00235 1.00201 1.00318 1.00289 1.00163 1.00125 1.00235 1.00201 1.00125 1.00075 1.00201 1.00155 1.05021 1.04704 1.06178 1.05756 1.0493 1.05021 1.06222 1.06178 1.04054 1.04174 1.0493 1.05021 1.04174 1.04019 1.05021 1.04704 1.0093 1.00955 1.00933 1.00959 1.00906 1.0093 1.00909 1.00933 1.00903 1.00927 1.00906 1.0093 1.00927 1.00949 1.0093 1.00955 1.00096 1.00067 1.00072 1.00046 1.00072 1.00046 1.00056 1.00035 1.00093 1.00072 1.00075 1.00056 1.00117 1.00096 1.00093 1.00072 0.750566 0.382698 0.340322 0 0.979194 0.750566 0.678219 0.340322 1.14305 1.08651 0.979194 0.750566 1.08651 0.901464 0.750566 0.382698 1.01276 1.01249 1.01611 1.01655 1.01275 1.01276 1.01545 1.01611 1.01016 1.00979 1.01275 1.01276 1.00979 1.00914 1.01276 1.01249 0.992596 0.990846 0.991434 0.989947 0.993557 0.991643 0.992596 0.990846 0.991643 0.989752 0.990846 0.989018 0.990846 0.989018 0.989947 0.988348 1.14503 1.12647 1.04002 0.969886 1.10028 1.10472 1.14503 1.12647 1.10472 1.09975 1.12647 1.09938 1.12647 1.09938 0.969886 0.912203 1.00718 1.00792 1.00671 1.00737 1.00792 1.00852 1.00737 1.00793 1.00737 1.00793 1.0069 1.00742 1.00671 1.00737 1.00632 1.0069 1.0022 1.00095 1.00423 1.00304 1.00051 0.999261 1.0022 1.00095 0.999261 0.997668 1.00095 0.999327 1.00095 0.999327 1.00304 1.00144 0.990715 0.993541 0.990275 0.992817 0.990275 0.992817 0.990252 0.992351 0.987694 0.990275 0.988358 0.990252 0.987351 0.990715 0.987694 0.990275 1.06588 1.05786 1.06006 1.05061 1.06006 1.05061 1.05497 1.04511 1.06768 1.06006 1.06222 1.05497 1.07245 1.06588 1.06768 1.06006 1.00348 1.00336 1.00225 1.00178 1.00225 1.00178 1.00113 1.00035 1.00255 1.00225 1.00166 1.00113 1.00354 1.00348 1.00255 1.00225 0.779884 0.7956 0.780219 0.827413 0.7956 0.932523 0.827413 0.97682 0.827413 0.97682 0.856391 1.00713 0.780219 0.827413 0.794241 0.856391 1.02832 1.02955 1.02548 1.02607 1.02548 1.02607 1.02282 1.02316 1.02448 1.02548 1.02224 1.02282 1.02647 1.02832 1.02448 1.02548 1.0376 1.02778 1.03945 1.04305 1.03743 1.0376 0.972728 1.03945 1.03364 1.02414 1.03743 1.0376 1.02414 1.02346 1.0376 1.02778 0.937229 0.810338 0.80927 0.637854 0.983057 0.937229 0.889754 0.80927 1.09236 1.10214 0.983057 0.937229 1.10214 0.96284 0.937229 0.810338 1.00874 1.00895 1.00877 1.00898 1.00859 1.00874 1.00862 1.00877 1.00856 1.00872 1.00859 1.00874 1.00872 1.00893 1.00874 1.00895 0.998387 0.999091 0.998138 0.998784 0.998611 0.999341 0.998387 0.999091 0.999341 1.00009 0.999091 0.999796 0.999091 0.999796 0.998784 0.999426 1.02356 1.02647 1.02271 1.02448 1.02271 1.02448 1.02147 1.02224 1.0212 1.02271 1.0207 1.02147 1.0214 1.02356 1.0212 1.02271 0.997539 0.997811 0.99683 0.997222 0.99683 0.997222 0.99612 0.996641 0.996422 0.99683 0.995549 0.99612 0.997277 0.997539 0.996422 0.99683 0.998617 0.998426 0.998301 0.998066 0.99885 0.998739 0.998617 0.998426 0.998739 0.998637 0.998426 0.998274 0.998426 0.998274 0.998066 0.997871 1.0102 1.01081 1.01251 1.01122 1.01164 1.0102 1.01228 1.01251 1.00972 1.01249 1.01164 1.0102 1.01249 1.02521 1.0102 1.01081 1.00758 1.00812 1.00711 1.00777 1.00712 1.00758 1.00657 1.00711 1.0076 1.00796 1.00712 1.00758 1.00796 1.00836 1.00758 1.00812 1.00328 1.00324 1.00281 1.00276 1.00329 1.00328 1.00284 1.00281 1.00378 1.00379 1.00329 1.00328 1.00379 1.00377 1.00328 1.00324 0.975532 0.959714 0.984867 0.971244 0.984867 0.971244 0.997836 0.988873 0.993076 0.984867 1.00322 0.997836 0.985675 0.975532 0.993076 0.984867 0.983057 0.889754 0.975279 0.921529 0.975279 0.921529 0.975222 0.940557 1.02358 0.975279 1.00685 0.975222 1.09236 0.983057 1.02358 0.975279 0.697255 0.59258 0.861669 0.700613 0.845552 0.697255 0.973944 0.861669 0.715375 0.625886 0.845552 0.697255 0.625886 0.677008 0.697255 0.59258 1.00601 1.00917 1.00693 1.01022 1.00917 1.01163 1.01022 1.01282 1.01022 1.01282 1.01168 1.0145 1.00693 1.01022 1.00828 1.01168 1.04656 1.052 1.05575 1.06344 1.05575 1.06344 1.0634 1.07299 1.04946 1.05575 1.05573 1.0634 1.04197 1.04656 1.04946 1.05575 1.01291 1.01233 1.0128 1.01232 1.0128 1.01232 1.01277 1.01226 1.01341 1.0128 1.01336 1.01277 1.01355 1.01291 1.01341 1.0128 1.01447 1.01441 1.01288 1.01273 1.01432 1.01447 1.01285 1.01288 1.01585 1.01616 1.01432 1.01447 1.01616 1.01621 1.01447 1.01441 1.02916 0.900067 0.961444 0.729594 0.900067 0.700613 0.729594 0.557318 0.729594 0.557318 0.520096 0.563237 0.961444 0.729594 0.812639 0.520096 0.959029 0.966267 0.964121 0.969786 0.956007 0.964904 0.959029 0.966267 0.964904 0.97113 0.966267 0.971693 0.966267 0.971693 0.969786 0.974225 1.01606 1.01572 1.0151 1.01477 1.01572 1.01517 1.01477 1.01428 1.01477 1.01428 1.01399 1.01354 1.0151 1.01477 1.01431 1.01399 0.994709 0.993937 0.99384 0.992746 0.99384 0.992746 0.992853 0.991282 0.994979 0.99384 0.994399 0.992853 0.995549 0.994709 0.994979 0.99384 1.00632 1.00556 1.00794 1.00708 1.00437 1.00385 1.00632 1.00556 1.00385 1.00351 1.00556 1.00501 1.00556 1.00501 1.00708 1.0064 1.01547 1.01428 1.01373 1.01286 1.01688 1.01544 1.01547 1.01428 1.01544 1.01427 1.01428 1.01329 1.01428 1.01329 1.01286 1.01212 1.01048 1.01061 1.0102 1.01029 1.0102 1.01029 1.00991 1.01 1.01012 1.0102 1.00983 1.00991 1.01035 1.01048 1.01012 1.0102 1.01264 1.01168 1.0121 1.01121 1.0121 1.01121 1.01162 1.01077 1.01295 1.0121 1.01243 1.01162 1.01354 1.01264 1.01295 1.0121 1.01621 1.01859 1.01621 1.01817 1.01859 1.02187 1.01817 1.02073 1.01817 1.02073 1.01732 1.01903 1.01621 1.01817 1.01591 1.01732 1.01053 1.01068 1.01026 1.01047 1.01068 1.01083 1.01047 1.01016 1.01047 1.01016 1.00808 1.00809 1.01026 1.01047 1.00967 1.00808 0.660665 0 0.382698 0 0.977475 0.660665 0.901464 0.382698 0.904122 0.702303 0.977475 0.660665 0.702303 0 0.660665 0 1.00611 1.00715 1.00615 1.00718 1.00512 1.00611 1.00516 1.00615 1.00501 1.00598 1.00512 1.00611 1.00598 1.00702 1.00611 1.00715 0.998442 0.998434 0.997886 0.997955 0.998923 0.99887 0.998442 0.998434 0.99887 0.998839 0.998434 0.998473 0.998434 0.998473 0.997955 0.998095 0.99807 0.998216 0.997277 0.997539 0.998803 0.998854 0.99807 0.998216 0.998854 0.998936 0.998216 0.998388 0.998216 0.998388 0.997539 0.997811 1.00937 1.00941 1.00968 1.00976 1.0091 1.00908 1.00937 1.00941 1.00908 1.00903 1.00941 1.00942 1.00941 1.00942 1.00976 1.00982 0.994709 0.995434 0.993937 0.994814 0.995549 0.99612 0.994709 0.995434 0.99612 0.996641 0.995434 0.996076 0.995434 0.996076 0.994814 0.995571 1.01715 1.02476 1.0194 1.02831 1.0153 1.02394 1.01715 1.02476 1.02394 1.02656 1.02476 1.02899 1.02476 1.02899 1.02831 1.02932 1.01058 1.01059 1.01089 1.01092 1.01054 1.01058 1.01081 1.01089 1.01025 1.01027 1.01054 1.01058 1.01027 1.01029 1.01058 1.01059 0.984305 0.98349 0.985835 0.985498 0.98349 0.982978 0.985498 0.985478 0.985498 0.985478 0.98719 0.9875 0.985835 0.985498 0.987187 0.98719 0.959029 0.964121 0.951886 0.958223 0.951886 0.958223 0.942782 0.950842 0.947755 0.951886 0.937133 0.942782 0.956007 0.959029 0.947755 0.951886 1.00659 1.00667 1.00614 1.0062 1.00667 1.00681 1.0062 1.0063 1.0062 1.0063 1.00569 1.00576 1.00614 1.0062 1.00565 1.00569 1.00165 1.00015 1.00051 0.99896 1.0025 1.00108 1.00165 1.00015 1.00108 0.999884 1.00015 0.998923 1.00015 0.998923 0.99896 0.997703 1.00774 1.00802 1.00793 1.00825 1.00793 1.00825 1.00823 1.00862 1.00754 1.00793 1.00775 1.00823 1.0074 1.00774 1.00754 1.00793 1.01325 1.01166 1.02901 1.02269 1.01484 1.01497 1.01325 1.01166 1.01497 1.01482 1.01166 1.01168 1.01166 1.01168 1.02269 1.01678 1.06344 1.07147 1.07299 1.08346 1.052 1.05711 1.06344 1.07147 1.05711 1.06284 1.07147 1.08135 1.07147 1.08135 1.08346 1.09719 0.91248 0.54348 0.997054 0.796128 0.812639 0.40685 0.91248 0.54348 0.40685 0.513431 0.54348 0.300556 0.54348 0.300556 0.796128 0.508701 1.02083 1.02327 1.02092 1.02295 1.01894 1.02083 1.01928 1.02092 1.01811 1.02022 1.01894 1.02083 1.02022 1.02301 1.02083 1.02327 1.00903 1.009 1.00927 1.00922 1.009 1.00898 1.00922 1.00918 1.00922 1.00918 1.00951 1.0096 1.00927 1.00922 1.00949 1.00951 0.973941 0.969786 0.977605 0.974225 0.979106 0.973941 0.981819 0.977605 0.975882 0.969379 0.979106 0.973941 0.969379 0.964121 0.973941 0.969786 1.01125 1.01077 1.01135 1.01076 1.01135 1.01076 1.01138 1.01071 1.01198 1.01135 1.01211 1.01138 1.01175 1.01125 1.01198 1.01135 1.04312 1.0449 1.04947 1.04953 1.04117 1.04312 1.05411 1.04947 1.03562 1.03899 1.04117 1.04312 1.03899 1.04092 1.04312 1.0449 0.965806 1.05103 0.754436 0.976109 0.7951 0.965806 0.563237 0.754436 0.972728 1.03945 0.7951 0.965806 1.03945 1.04305 0.965806 1.05103 1.01002 1.00976 1.01006 1.00982 1.0103 1.01002 1.0103 1.01006 1.01029 1.00997 1.0103 1.01002 1.00997 1.00968 1.01002 1.00976 0.980815 0.895196 0.997059 0.911491 1.02648 0.980815 1.02717 0.997059 1.01941 0.968213 1.02648 0.980815 0.968213 0.892731 0.980815 0.895196 1.00763 1.00797 1.00801 1.00835 1.00797 1.00837 1.00835 1.00875 1.00835 1.00875 1.00868 1.00907 1.00801 1.00835 1.00835 1.00868 1.01272 1.012 1.01248 1.01176 1.01285 1.01214 1.01272 1.012 1.01214 1.01152 1.012 1.01137 1.012 1.01137 1.01176 1.01113 1.00828 1.00805 1.00847 1.0082 1.00847 1.0082 1.00876 1.00843 1.00868 1.00847 1.00903 1.00876 1.00845 1.00828 1.00868 1.00847 1.00854 1.00864 1.00872 1.0088 1.00872 1.0088 1.00896 1.00901 1.00861 1.00872 1.00888 1.00896 1.00842 1.00854 1.00861 1.00872 1.00006 0.999521 1.00043 0.999847 0.999771 0.99931 1.00006 0.999521 0.99931 0.998803 0.999521 0.998874 0.999521 0.998874 0.999847 0.999079 1.00726 1.00215 1.00563 1.00097 1.00563 1.00097 1.00457 1.00033 1.0096 1.00563 1.00828 1.00457 1.01152 1.00726 1.0096 1.00563 0.999818 0.999704 0.999815 0.999701 0.999815 0.999701 0.999812 0.999706 0.999289 0.999815 0.999286 0.999812 0.999326 0.999818 0.999289 0.999815 1.04275 1.04739 1.0449 1.04953 1.03879 1.04275 1.04092 1.0449 1.03645 1.04014 1.03879 1.04275 1.04014 1.04404 1.04275 1.04739 1.00379 1.00425 1.00253 1.00307 1.00425 1.00456 1.00307 1.00346 1.00307 1.00346 1.00204 1.00248 1.00253 1.00307 1.00144 1.00204 1.00284 1.00281 1.0024 1.00236 1.00281 1.00276 1.00236 1.00229 1.00236 1.00229 1.00196 1.00187 1.0024 1.00236 1.00201 1.00196 0.952697 0.962425 0.959714 0.971244 0.943379 0.950746 0.952697 0.962425 0.950746 0.962741 0.962425 0.9788 0.962425 0.9788 0.971244 0.988873 0.961564 0.834463 1.00874 0.905458 0.834463 0.779884 0.905458 0.780219 0.905458 0.780219 0.948379 0.794241 1.00874 0.905458 1.0272 0.948379 1.00158 1.00155 1.00192 1.00188 1.00131 1.00129 1.00158 1.00155 1.00129 1.00126 1.00155 1.00152 1.00155 1.00152 1.00188 1.00184 1.00787 1.00841 1.00808 1.00851 1.00808 1.00851 1.00833 1.00861 1.00759 1.00808 1.00803 1.00833 1.00722 1.00787 1.00759 1.00808 0.99807 0.997277 0.997996 0.997044 0.997996 0.997044 0.998015 0.996861 0.998874 0.997996 0.999079 0.998015 0.998803 0.99807 0.998874 0.997996 0.995423 0.993557 0.996023 0.994357 0.996023 0.994357 0.996879 0.995561 0.997331 0.996023 0.997942 0.996879 0.996912 0.995423 0.997331 0.996023 0.979735 0.981194 0.976223 0.978129 0.976223 0.978129 0.971693 0.974225 0.97524 0.976223 0.97113 0.971693 0.978681 0.979735 0.97524 0.976223 1.00114 1.0009 1.00112 1.00064 1.00138 1.00114 1.00141 1.00112 1.00136 1.00115 1.00138 1.00114 1.00115 1.00098 1.00114 1.0009 1.00804 1.00843 1.00841 1.00868 1.00775 1.00823 1.00804 1.00843 1.00823 1.00862 1.00843 1.00875 1.00843 1.00875 1.00868 1.00891 1.0085 1.00797 1.00793 1.00742 1.00911 1.0085 1.00852 1.00793 1.0096 1.00897 1.00911 1.0085 1.00897 1.00844 1.0085 1.00797 0.999996 0.999862 1.00003 0.999773 1.00003 0.999773 1.00002 0.999723 0.999444 1.00003 0.999372 1.00002 0.999712 0.999996 0.999444 1.00003 1.01451 1.01372 1.01463 1.01366 1.0143 1.01368 1.01451 1.01372 1.01368 1.01314 1.01372 1.01305 1.01372 1.01305 1.01366 1.01285 1.00235 1.00318 1.00266 1.00342 1.00266 1.00342 1.00288 1.00359 1.00199 1.00266 1.00225 1.00288 1.00163 1.00235 1.00199 1.00266 1.00792 1.00739 1.00844 1.00797 1.00747 1.0069 1.00792 1.00739 1.0069 1.00625 1.00739 1.00679 1.00739 1.00679 1.00797 1.00742 1.03579 1.04103 1.03598 1.04019 1.03176 1.03579 1.03242 1.03598 1.02758 1.03389 1.03176 1.03579 1.03389 1.04366 1.03579 1.04103 0.972505 0.974722 0.966408 0.970051 0.978272 0.97933 0.972505 0.974722 0.97933 0.980694 0.974722 0.977009 0.974722 0.977009 0.970051 0.973371 1.00582 1.00591 1.00529 1.00535 1.00529 1.00535 1.00475 1.0048 1.00524 1.00529 1.00472 1.00475 1.00576 1.00582 1.00524 1.00529 1.0171 0.932 0.996026 0.905865 1.01788 1.0171 1.02216 0.996026 1.01116 1.02948 1.01788 1.0171 1.02948 0.97636 1.0171 0.932 1.03697 1.0268 1.03978 1.0272 1.04656 1.03697 1.052 1.03978 1.04197 1.03426 1.04656 1.03697 1.03426 1.02584 1.03697 1.0268 0.926437 0.932748 0.914597 0.92454 0.932748 0.939632 0.92454 0.932952 0.92454 0.932952 0.916634 0.925775 0.914597 0.92454 0.9053 0.916634 1.00991 1.01096 1.01013 1.01124 1.00964 1.01065 1.00991 1.01096 1.01065 1.01168 1.01096 1.01204 1.01096 1.01204 1.01124 1.01238 1.00225 1.00201 1.00164 1.00129 1.00201 1.00166 1.00129 1.00078 1.00129 1.00078 1.00069 1.00009 1.00164 1.00129 1.00113 1.00069 0.990214 0.988831 0.990478 0.989114 0.990194 0.988819 0.990214 0.988831 0.988819 0.987187 0.988831 0.98719 0.988831 0.98719 0.989114 0.9875 0.997044 0.996036 0.996861 0.995675 0.997277 0.996422 0.997044 0.996036 0.996422 0.995549 0.996036 0.994979 0.996036 0.994979 0.995675 0.994399 0.999357 0.999359 0.999757 0.999748 0.998923 0.998936 0.999357 0.999359 0.998936 0.99904 0.999359 0.99943 0.999359 0.99943 0.999748 0.999789 0.996232 0.99599 0.99674 0.996458 0.995653 0.995494 0.996232 0.99599 0.995494 0.995386 0.99599 0.995839 0.99599 0.995839 0.996458 0.99628 1.00045 1.00027 1.0002 1.00005 1.00061 1.00045 1.00035 1.0002 1.00075 1.00056 1.00061 1.00045 1.00056 1.00035 1.00045 1.00027 1.04366 1.04652 1.04103 1.04766 1.04652 1.05494 1.04766 1.05649 1.04766 1.05649 1.04704 1.05756 1.04103 1.04766 1.04019 1.04704 1.07012 1.00672 1.03762 0.962287 1.00672 0.960606 0.962287 0.923617 0.962287 0.923617 0.8708 0.866636 1.03762 0.962287 0.904122 0.8708 0.988056 0.986338 0.984318 0.981819 0.989569 0.988056 0.986413 0.984318 0.992953 0.992041 0.989569 0.988056 0.992041 0.991118 0.988056 0.986338 1.00866 1.00838 1.00894 1.00867 1.00843 1.00815 1.00866 1.00838 1.00815 1.00782 1.00838 1.00805 1.00838 1.00805 1.00867 1.00835 1.00822 1.00798 1.01065 1.01098 1.00822 1.00822 1.01039 1.01065 1.0245 1.02622 1.00822 1.00822 1.02622 1.02818 1.00822 1.00798 1.02948 1.02847 0.97636 0.960432 1.01116 1.00975 1.02948 1.02847 1.00975 1.00967 1.02847 1.02806 1.02847 1.02806 0.960432 0.937721 0.912865 0.926425 0.922401 0.933664 0.926425 0.937133 0.933664 0.942782 0.933664 0.942782 0.94349 0.950842 0.922401 0.933664 0.934637 0.94349 1.01005 1.00831 1.01016 1.00818 1.00831 1.00667 1.00818 1.00636 1.00818 1.00636 1.0079 1.00588 1.01016 1.00818 1.01016 1.0079 0.996499 0.995235 0.997703 0.996469 0.995561 0.994289 0.996499 0.995235 0.994289 0.992708 0.995235 0.993658 0.995235 0.993658 0.996469 0.994924 1.02869 1.03371 1.02524 1.02924 1.02524 1.02924 1.02092 1.02381 1.02226 1.02524 1.01876 1.02092 1.025 1.02869 1.02226 1.02524 0.997175 0.997651 0.99685 0.997403 0.997554 0.997947 0.997175 0.997651 0.997947 0.998301 0.997651 0.998066 0.997651 0.998066 0.997403 0.997871 0.988301 0.986413 0.985846 0.983537 0.985846 0.983537 0.98378 0.981194 0.987757 0.985846 0.985928 0.98378 0.9899 0.988301 0.987757 0.985846 0.999898 0.999902 0.999701 0.999706 0.999903 0.999898 0.999704 0.999701 0.999934 0.999938 0.999903 0.999898 0.999938 0.999941 0.999898 0.999902 1.02983 1.02593 1.02955 1.02607 1.02911 1.02506 1.02983 1.02593 1.02506 1.02187 1.02593 1.02278 1.02593 1.02278 1.02607 1.02316 1.0165 1.01617 1.01555 1.01522 1.01555 1.01522 1.01468 1.0145 1.01497 1.01555 1.01482 1.01468 1.01484 1.0165 1.01497 1.01555 0.995653 0.996232 0.995852 0.996423 0.996232 0.99674 0.996423 0.996918 0.996423 0.996918 0.996689 0.997167 0.995852 0.996423 0.996135 0.996689 1.01003 1.01231 1.00933 1.01189 1.01044 1.01003 1.01752 1.00933 1.00856 1.0113 1.01044 1.01003 1.0113 1.01185 1.01003 1.01231 1.01188 1.01464 1.01168 1.01678 1.0143 1.01188 1.01482 1.01168 1.01378 1.01198 1.0143 1.01188 1.01198 1.01345 1.01188 1.01464 0.998921 0.998803 1.00035 0.999792 0.997419 0.997797 0.998921 0.998803 0.997797 0.998138 0.998803 0.998784 0.998803 0.998784 0.999792 0.999426 1.0093 1.00956 1.00928 1.00951 1.00928 1.00951 1.00926 1.00945 1.00902 1.00928 1.00899 1.00926 1.00904 1.0093 1.00902 1.00928 0.994659 0.995502 0.997167 0.997637 0.995502 0.996249 0.997637 0.998086 0.997637 0.998086 0.999793 0.999947 0.997167 0.997637 0.999689 0.999793 1.01681 1.01749 1.01799 1.01855 1.01621 1.01681 1.01727 1.01799 1.01514 1.01583 1.01621 1.01681 1.01583 1.01651 1.01681 1.01749 0.999992 1.00002 1.0001 1.00011 1.0001 1.00011 1.00001 1.00002 1.00008 1.0001 1.00001 1.00001 0.99996 0.999992 1.00008 1.0001 1.01166 1.01105 1.01164 1.01102 1.01105 1.01046 1.01102 1.01045 1.01102 1.01045 1.01093 1.0104 1.01164 1.01102 1.01152 1.01093 1.00216 1.00255 1.00225 1.00263 1.00203 1.00243 1.00216 1.00255 1.00243 1.0029 1.00255 1.00299 1.00255 1.00299 1.00263 1.00304 0.998156 0.998239 0.997725 0.997831 0.998543 0.