# vtk DataFile Version 3.0
#This file was generated by the deal.II library on 2020/11/23 at 12:13:07
ASCII
DATASET UNSTRUCTURED_GRID

POINTS 53452 double
-13.8533 10.5081 0
-14.9532 10.4145 0
-13.8388 9.35329 0
-14.8872 9.24174 0
-12.7534 10.6016 0
-13.8533 10.5081 0
-12.7904 9.46484 0
-13.8388 9.35329 0
-12.7163 11.7384 0
-13.8678 11.6628 0
-12.7534 10.6016 0
-13.8533 10.5081 0
-13.8678 11.6628 0
-15.0192 11.5873 0
-13.8533 10.5081 0
-14.9532 10.4145 0
6.68843 -6.78069 0
6.18761 -7.41969 0
7.38113 -7.20964 0
6.93245 -7.92212 0
-16.52 -16.7928 0
-16.6158 -18.2087 0
-15.1257 -16.9192 0
-15.2028 -18.2792 0
-16.4243 -15.3769 0
-16.52 -16.7928 0
-15.0487 -15.5592 0
-15.1257 -16.9192 0
-17.7999 -15.1946 0
-17.9143 -16.6664 0
-16.4243 -15.3769 0
-16.52 -16.7928 0
-17.9143 -16.6664 0
-18.0287 -18.1381 0
-16.52 -16.7928 0
-16.6158 -18.2087 0
-0.0489017 -5.4198 0
0.195599 -5.11785 0
-0.233805 -5.12777 0
-0.135808 -4.865 0
0.136002 -5.71183 0
0.527007 -5.3707 0
-0.0489017 -5.4198 0
0.195599 -5.11785 0
-6.6434 -12.9082 0
-6.46182 -11.8249 0
-7.65596 -12.5808 0
-7.46659 -11.3517 0
-6.82499 -13.9915 0
-6.6434 -12.9082 0
-7.84532 -13.81 0
-7.65596 -12.5808 0
-5.80466 -14.173 0
-5.63085 -13.2356 0
-6.82499 -13.9915 0
-6.6434 -12.9082 0
-5.63085 -13.2356 0
-5.45704 -12.2981 0
-6.6434 -12.9082 0
-6.46182 -11.8249 0
4.12122 -8.92384 0
4.78406 -9.47814 0
4.50551 -8.2033 0
5.23543 -8.76841 0
4.78406 -9.47814 0
5.44691 -10.0324 0
5.23543 -8.76841 0
5.96534 -9.33352 0
5.23543 -8.76841 0
5.96534 -9.33352 0
5.68679 -8.05868 0
6.48377 -8.63461 0
-7.09602 -2.18563 0
-6.53929 -2.09015 0
-7.19023 -1.60862 0
-6.63537 -1.55166 0
-7.65275 -2.2811 0
-7.09602 -2.18563 0
-7.7451 -1.66558 0
-7.19023 -1.60862 0
-7.5604 -2.89663 0
-7.00181 -2.76263 0
-7.65275 -2.2811 0
-7.09602 -2.18563 0
-7.00181 -2.76263 0
-6.44321 -2.62864 0
-7.09602 -2.18563 0
-6.53929 -2.09015 0
-2.99863 -15.6354 0
-2.93376 -14.6426 0
-3.9936 -15.5216 0
-3.88612 -14.5339 0
-3.06349 -16.6282 0
-2.99863 -15.6354 0
-4.10108 -16.5094 0
-3.9936 -15.5216 0
-2.02591 -16.7471 0
-2.00365 -15.7492 0
-3.06349 -16.6282 0
-2.99863 -15.6354 0
-2.00365 -15.7492 0
-1.98139 -14.7512 0
-2.99863 -15.6354 0
-2.93376 -14.6426 0
2.66291 11.5461 0
2.11456 12.0747 0
2.37894 11.0136 0
1.69665 11.3983 0
2.94689 12.0785 0
2.53246 12.7511 0
2.66291 11.5461 0
2.11456 12.0747 0
2.53246 12.7511 0
2.11803 13.4236 0
2.11456 12.0747 0
1.5662 12.6033 0
2.11456 12.0747 0
1.5662 12.6033 0
1.69665 11.3983 0
1.01437 11.7831 0
-17.7367 5.55532 0
-17.596 4.42597 0
-16.639 5.64414 0
-16.4858 4.51282 0
-17.8774 6.68468 0
-17.7367 5.55532 0
-16.7921 6.77546 0
-16.639 5.64414 0
-18.9626 6.5939 0
-18.8343 5.4665 0
-17.8774 6.68468 0
-17.7367 5.55532 0
-18.8343 5.4665 0
-18.7061 4.33911 0
-17.7367 5.55532 0
-17.596 4.42597 0
-6.73605 1.12671 0
-7.37654 0.910466 0
-6.50466 0.715526 0
-6.99989 0.564847 0
-6.50466 0.715526 0
-6.99989 0.564847 0
-6.27328 0.304345 0
-6.62325 0.219227 0
-6.00943 0.866205 0
-6.50466 0.715526 0
-5.9233 0.389462 0
-6.27328 0.304345 0
-8.83701 -10.1701 0
-8.95705 -9.01482 0
-9.98285 -10.0693 0
-9.99835 -8.8394 0
-8.71697 -11.3255 0
-8.83701 -10.1701 0
-9.96735 -11.2993 0
-9.98285 -10.0693 0
-7.46659 -11.3517 0
-7.69118 -10.271 0
-8.71697 -11.3255 0
-8.83701 -10.1701 0
-7.69118 -10.271 0
-7.91576 -9.19023 0
-8.83701 -10.1701 0
-8.95705 -9.01482 0
3.37524 6.37284 0
2.87692 6.64473 0
3.08011 5.89645 0
2.59187 6.16225 0
2.87692 6.64473 0
2.3786 6.91662 0
2.59187 6.16225 0
2.10362 6.42806 0
6.76398 -9.92413 0
7.30183 -9.18428 0
5.96534 -9.33352 0
6.48377 -8.63461 0
6.22613 -10.664 0
6.76398 -9.92413 0
5.44691 -10.0324 0
5.96534 -9.33352 0
7.00535 -11.2955 0
7.56262 -10.5147 0
6.22613 -10.664 0
6.76398 -9.92413 0
7.56262 -10.5147 0
8.11989 -9.73396 0
6.76398 -9.92413 0
7.30183 -9.18428 0
-2.69428 -11.1482 0
-3.49425 -11.0361 0
-2.75631 -11.9838 0
-3.59383 -11.8717 0
-2.75631 -11.9838 0
-3.59383 -11.8717 0
-2.81834 -12.8193 0
-3.69341 -12.7073 0
-1.91879 -12.0958 0
-2.75631 -11.9838 0
-1.94327 -12.9313 0
-2.81834 -12.8193 0
-1.89431 -11.2604 0
-2.69428 -11.1482 0
-1.91879 -12.0958 0
-2.75631 -11.9838 0
-7.53466 8.36135 0
-8.08515 7.70312 0
-6.8542 7.83518 0
-7.44002 7.11541 0
-8.08515 7.70312 0
-8.63564 7.0449 0
-7.44002 7.11541 0
-8.02585 6.39564 0
-5.77923 10.5665 0
-6.45007 11.1197 0
-6.33474 9.84893 0
-7.14514 10.5844 0
-5.22372 11.2841 0
-5.755 11.655 0
-5.77923 10.5665 0
-6.45007 11.1197 0
-5.755 11.655 0
-6.28628 12.0259 0
-6.45007 11.1197 0
-7.12091 11.6728 0
-6.45007 11.1197 0
-7.12091 11.6728 0
-7.14514 10.5844 0
-7.95554 11.3198 0
11.7316 8.01612 0
10.5849 8.05811 0
11.5847 6.88044 0
10.5094 7.09109 0
12.8782 7.97412 0
11.7316 8.01612 0
12.6599 6.6698 0
11.5847 6.88044 0
13.0965 9.27845 0
11.8785 9.15179 0
12.8782 7.97412 0
11.7316 8.01612 0
11.8785 9.15179 0
10.6605 9.02512 0
11.7316 8.01612 0
10.5849 8.05811 0
-0.490783 15.4803 0
-1.18801 14.5281 0
-0.037515 14.6474 0
-0.586272 13.8846 0
-1.18801 14.5281 0
-1.88524 13.576 0
-0.586272 13.8846 0
-1.13503 13.1219 0
-0.586272 13.8846 0
-1.13503 13.1219 0
0.0154684 13.2411 0
-0.384816 12.6678 0
-0.037515 14.6474 0
-0.586272 13.8846 0
0.415752 13.8145 0
0.0154684 13.2411 0
-9.04999 12.7177 0
-9.19959 11.5011 0
-7.85416 12.5391 0
-7.95554 11.3198 0
-8.9004 13.9344 0
-9.04999 12.7177 0
-7.75277 13.7585 0
-7.85416 12.5391 0
-10.048 14.1103 0
-10.2458 12.8963 0
-8.9004 13.9344 0
-9.04999 12.7177 0
-10.2458 12.8963 0
-10.4436 11.6824 0
-9.04999 12.7177 0
-9.19959 11.5011 0
7.14485 -15.7524 0
8.16732 -15.452 0
6.65415 -14.7524 0
7.27677 -14.2703 0
6.12237 -16.0527 0
7.14485 -15.7524 0
6.03153 -15.2344 0
6.65415 -14.7524 0
6.21321 -16.8709 0
7.63554 -16.7523 0
6.12237 -16.0527 0
7.14485 -15.7524 0
7.63554 -16.7523 0
9.05786 -16.6337 0
7.14485 -15.7524 0
8.16732 -15.452 0
-5.32134 -2.83936 0
-4.88103 -2.69798 0
-5.45817 -2.36384 0
-5.00057 -2.23678 0
-5.1845 -3.31487 0
-4.7615 -3.15918 0
-5.32134 -2.83936 0
-4.88103 -2.69798 0
-4.7615 -3.15918 0
-4.33849 -3.00348 0
-4.88103 -2.69798 0
-4.44073 -2.5566 0
2.57958 -10.6427 0
3.12221 -11.2543 0
2.82549 -10 0
3.56606 -10.6753 0
2.33367 -11.2854 0
2.67837 -11.8333 0
2.57958 -10.6427 0
3.12221 -11.2543 0
2.67837 -11.8333 0
3.02307 -12.3812 0
3.12221 -11.2543 0
3.66485 -11.8659 0
3.12221 -11.2543 0
3.66485 -11.8659 0
3.56606 -10.6753 0
4.30663 -11.3505 0
42.7057 -20.2107 0
40.3051 -20.3541 0
42.8605 -22.6801 0
40.5134 -22.7877 0
42.8605 -22.6801 0
40.5134 -22.7877 0
43.0153 -25.1495 0
40.7218 -25.2213 0
45.2075 -22.5726 0
42.8605 -22.6801 0
45.3087 -25.0778 0
43.0153 -25.1495 0
45.1063 -20.0674 0
42.7057 -20.2107 0
45.2075 -22.5726 0
42.8605 -22.6801 0
-10.485 -5.9237 0
-10.2461 -6.70991 0
-9.73301 -5.68794 0
-9.51709 -6.43588 0
-10.7239 -5.13749 0
-10.485 -5.9237 0
-9.94892 -4.93999 0
-9.73301 -5.68794 0
-11.4989 -5.33498 0
-11.237 -6.15945 0
-10.7239 -5.13749 0
-10.485 -5.9237 0
-11.237 -6.15945 0
-10.9751 -6.98393 0
-10.485 -5.9237 0
-10.2461 -6.70991 0
8.21205 -7.65767 0
7.38113 -7.20964 0
7.75694 -8.42098 0
6.93245 -7.92212 0
7.75694 -8.42098 0
6.93245 -7.92212 0
7.30183 -9.18428 0
6.48377 -8.63461 0
8.58144 -8.91983 0
7.75694 -8.42098 0
8.11989 -9.73396 0
7.30183 -9.18428 0
9.04298 -8.1057 0
8.21205 -7.65767 0
8.58144 -8.91983 0
7.75694 -8.42098 0
-3.5104 -7.25969 0
-2.94414 -7.48455 0
-3.22633 -6.77823 0
-2.82242 -6.89845 0
-4.07667 -7.03483 0
-3.5104 -7.25969 0
-3.63024 -6.65801 0
-3.22633 -6.77823 0
-4.52309 -7.41164 0
-3.79447 -7.74114 0
-4.07667 -7.03483 0
-3.5104 -7.25969 0
-3.79447 -7.74114 0
-3.06585 -8.07065 0
-3.5104 -7.25969 0
-2.94414 -7.48455 0
-4.30606 7.29041 0
-4.48617 7.95181 0
-4.63655 6.86877 0
-5.02828 7.41495 0
-4.48617 7.95181 0
-4.66629 8.61321 0
-5.02828 7.41495 0
-5.42001 7.96112 0
-5.02828 7.41495 0
-5.42001 7.96112 0
-5.57039 6.87808 0
-6.17373 7.30902 0
-4.63655 6.86877 0
-5.02828 7.41495 0
-4.96704 6.44714 0
-5.57039 6.87808 0
-17.4603 3.2866 0
-16.3433 3.3674 0
-17.596 4.42597 0
-16.4858 4.51282 0
-18.5772 3.2058 0
-17.4603 3.2866 0
-18.7061 4.33911 0
-17.596 4.42597 0
-18.4484 2.07248 0
-17.3245 2.14723 0
-18.5772 3.2058 0
-17.4603 3.2866 0
-17.3245 2.14723 0
-16.2007 2.22197 0
-17.4603 3.2866 0
-16.3433 3.3674 0
-4.26157 -5.79389 0
-4.16912 -6.41436 0
-3.68454 -5.78981 0
-3.65739 -6.22391 0
-4.8386 -5.79796 0
-4.68084 -6.6048 0
-4.26157 -5.79389 0
-4.16912 -6.41436 0
-4.68084 -6.6048 0
-4.52309 -7.41164 0
-4.16912 -6.41436 0
-4.07667 -7.03483 0
-4.16912 -6.41436 0
-4.07667 -7.03483 0
-3.65739 -6.22391 0
-3.63024 -6.65801 0
9.05786 -16.6337 0
8.86056 -17.9621 0
10.7571 -17.3316 0
10.3074 -18.9082 0
8.86056 -17.9621 0
8.66326 -19.2904 0
10.3074 -18.9082 0
9.85763 -20.4848 0
10.3074 -18.9082 0
9.85763 -20.4848 0
11.7542 -19.8543 0
11.052 -21.6793 0
10.7571 -17.3316 0
10.3074 -18.9082 0
12.4564 -18.0294 0
11.7542 -19.8543 0
4.24428 9.48185 0
3.53962 9.76408 0
3.93478 8.81009 0
3.2859 9.08504 0
4.94894 9.19962 0
4.24428 9.48185 0
4.58367 8.53514 0
3.93478 8.81009 0
5.31422 9.86411 0
4.55378 10.1536 0
4.94894 9.19962 0
4.24428 9.48185 0
4.55378 10.1536 0
3.79335 10.4431 0
4.24428 9.48185 0
3.53962 9.76408 0
29.6134 -9.05521 0
28.2377 -9.73374 0
30.52 -10.2325 0
28.822 -11.2142 0
-4.48617 7.95181 0
-3.78738 7.80023 0
-4.66629 8.61321 0
-3.75865 8.45011 0
-4.30606 7.29041 0
-3.8161 7.15035 0
-4.48617 7.95181 0
-3.78738 7.80023 0
-3.8161 7.15035 0
-3.32615 7.01028 0
-3.78738 7.80023 0
-3.08858 7.64864 0
-3.78738 7.80023 0
-3.08858 7.64864 0
-3.75865 8.45011 0
-2.85101 8.28701 0
5.99574 -6.35175 0
6.68843 -6.78069 0
6.31309 -5.74608 0
7.02263 -6.11448 0
6.68843 -6.78069 0
7.38113 -7.20964 0
7.02263 -6.11448 0
7.73216 -6.48288 0
7.02263 -6.11448 0
7.73216 -6.48288 0
7.35682 -5.44826 0
8.08319 -5.75612 0
-18.0287 -18.1381 0
-18.0782 -19.6056 0
-16.6158 -18.2087 0
-16.6467 -19.6474 0
-18.0782 -19.6056 0
-18.1276 -21.073 0
-16.6467 -19.6474 0
-16.6777 -21.0862 0
-16.6467 -19.6474 0
-16.6777 -21.0862 0
-15.2153 -19.6893 0
-15.2277 -21.0993 0
-16.6158 -18.2087 0
-16.6467 -19.6474 0
-15.2028 -18.2792 0
-15.2153 -19.6893 0
4.50311 -26.7001 0
4.22085 -25.1272 0
2.8279 -26.7693 0
[...]
POINT_DATA 53452
SCALARS solution_0 double 1
LOOKUP_TABLE default
0.999731 0.999676 0.999311 0.999314 0.999833 0.999731 0.999346 0.999311 1.00026 1.0001 0.999833 0.999731 1.0001 0.999995 0.999731 0.999676 1.02028 1.01964 1.01896 1.01831 1.00069 1.0008 1.00091 1.00104 1.00054 1.00069 1.00075 1.00091 1.00038 1.00051 1.00054 1.00069 1.00051 1.00061 1.00069 1.0008 1.01612 1.0186 1.01539 1.01672 1.01657 1.01988 1.01612 1.0186 1.00291 1.0026 1.00218 1.00171 1.0031 1.00291 1.00249 1.00218 1.00378 1.0037 1.0031 1.00291 1.0037 1.00356 1.00291 1.0026 1.01708 1.01632 1.01858 1.01757 1.01632 1.01565 1.01757 1.01664 1.01757 1.01664 1.01873 1.01753 0.987769 0.986097 0.987034 0.985264 0.989195 0.987769 0.988542 0.987034 0.990071 0.988753 0.989195 0.987769 0.988753 0.987213 0.987769 0.986097 1.00577 1.0059 1.0051 1.00518 1.00564 1.00577 1.00502 1.0051 1.00627 1.00645 1.00564 1.00577 1.00645 1.00663 1.00577 1.0059 1.01253 1.01159 1.01286 1.01181 1.01222 1.01134 1.01253 1.01159 1.01134 1.01054 1.01159 1.0107 1.01159 1.0107 1.01181 1.01078 0.998832 0.998607 0.99857 0.998283 0.999047 0.998832 0.998868 0.99857 0.99921 0.999003 0.999047 0.998832 0.999003 0.99884 0.998832 0.998607 0.985001 0.986821 0.983681 0.985361 0.983681 0.985361 0.982345 0.983788 0.981699 0.983681 0.980707 0.982345 1.00032 0.999396 0.999913 0.99906 1.00106 1.00032 1.00059 0.999913 1.00171 1.00091 1.00106 1.00032 1.00091 0.999927 1.00032 0.999396 1.02373 1.02236 1.02557 1.02394 1.02236 1.02075 1.02394 1.02201 1.01577 1.01652 1.01664 1.01753 1.01493 1.01577 1.01565 1.01664 1.01429 1.01501 1.01493 1.01577 1.01501 1.01566 1.01577 1.01652 1.00619 1.00516 1.00616 1.00522 1.00616 1.00522 1.00609 1.00523 1.00711 1.00616 1.00696 1.00609 1.00725 1.00619 1.00711 1.00616 0.999412 0.998458 0.999139 0.997869 0.998458 0.99759 0.997869 0.996746 1.00261 1.00238 1.00161 1.00157 1.00352 1.00321 1.00261 1.00238 1.00321 1.00294 1.00238 1.0022 1.00238 1.0022 1.00157 1.00153 1.0151 1.01578 1.0156 1.01632 1.01451 1.0151 1.01495 1.0156 1.01399 1.01454 1.01451 1.0151 1.01454 1.01518 1.0151 1.01578 1.00767 1.00743 1.00828 1.00813 1.00743 1.00705 1.00813 1.00787 1.00813 1.00787 1.00892 1.00879 1.00828 1.00813 1.00899 1.00892 1.00164 1.00105 1.00216 1.00153 1.00211 1.00164 1.00261 1.00216 1.0017 1.00126 1.00211 1.00164 1.00126 1.00071 1.00164 1.00105 1.01099 1.01132 1.01149 1.01191 1.01059 1.01099 1.01104 1.01149 1.01019 1.01056 1.01059 1.01099 1.01056 1.01083 1.01099 1.01132 0.985288 0.9835 0.983641 0.981498 0.987161 0.985763 0.985288 0.9835 0.985763 0.984165 0.9835 0.981471 1.01331 1.01304 1.01438 1.01405 1.01237 1.01211 1.01331 1.01304 1.01211 1.01186 1.01304 1.01275 1.01304 1.01275 1.01405 1.01365 1.00946 1.0095 1.00922 1.00927 1.00922 1.00927 1.00904 1.00909 1.00918 1.00922 1.009 1.00904 1.00943 1.00946 1.00918 1.00922 0.996648 0.997292 0.996128 0.996872 0.99606 0.996648 0.995443 0.996128 0.996597 0.997103 0.99606 0.996648 0.997103 0.997663 0.996648 0.997292 1.01771 1.01896 1.0172 1.01831 1.0172 1.01831 1.01652 1.01753 1.01624 1.0172 1.01566 1.01652 1.01669 1.01771 1.01624 1.0172 1.0023 1.00399 1.0022 1.00353 1.00077 1.0023 1.00096 1.0022 1.00069 1.00243 1.00077 1.0023 1.00243 1.0043 1.0023 1.00399 1.00106 1.00176 0.999742 1.00016 1.00176 1.00228 1.00016 1.00051 1.00016 1.00051 0.998592 0.998808 0.999742 1.00016 0.998374 0.998592 0.998391 0.998014 0.998607 0.998283 0.9987 0.998391 0.99884 0.998607 0.998574 0.998213 0.9987 0.998391 0.998213 0.997781 0.998391 0.998014 0.997511 0.999327 0.998681 0.999928 0.996672 0.998922 0.997511 0.999327 0.998922 1.00069 0.999327 1.00077 0.999327 1.00077 0.999928 1.00096 1.01083 1.01022 1.01067 1.01004 1.01022 1.00969 1.01004 1.00948 1.01004 1.00948 1.00989 1.00931 1.01067 1.01004 1.01051 1.00989 1.01631 1.01548 1.01736 1.01644 1.01697 1.01631 1.01811 1.01736 1.016 1.01541 1.01697 1.01631 1.01541 1.01465 1.01631 1.01548 1.01126 1.01127 1.01109 1.01106 1.00176 1.00274 1.00228 1.00351 1.00106 1.00174 1.00176 1.00274 1.00174 1.00263 1.00274 1.00407 1.00274 1.00407 1.00351 1.0052 1.02191 1.02028 1.02262 1.02091 1.02028 1.01896 1.02091 1.01948 1.02091 1.01948 1.02127 1.01976 1.00061 1.00069 1.0008 1.0009 1.00069 1.00075 1.0009 1.00097 1.0009 1.00097 1.00115 1.00123 1.0008 1.0009 1.00104 1.00115 1.00713 1.00723 1.00666 1.00675 1.00723 1.00739 1.00675 1.0069 1.00675 1.0069 1.00624 1.00637 1.00666 1.00675 1.00616 1.00624 1.01237 1.01072 1.01215 1.01049 1.01215 1.01049 1.01167 1.01003 1.00833 1.00862 1.00854 1.00888 1.00854 1.00888 1.00888 1.00931 1.00812 1.00854 1.00835 1.00888 1.00797 1.00833 1.00812 1.00854 1.01318 1.01356 1.01239 1.01267 1.01409 1.01459 1.01318 1.01356 1.01459 1.01484 1.01356 1.01377 1.01356 1.01377 1.01267 1.01284 1.01327 1.01422 1.01196 1.01266 1.01196 1.01266 1.01051 1.01095 1.01133 1.01196 1.01009 1.01051 1.01246 1.01327 1.01133 1.01196 1.0099 1.0099 1.01024 1.01031 1.0096 1.00956 1.0099 1.0099 1.00956 1.00948 1.0099 1.00987 1.0099 1.00987 1.01031 1.01036 1.00908 1.00869 1.00874 1.00838 1.00954 1.00908 1.00916 1.00874 1.00985 1.00937 1.00954 1.00908 1.00937 1.00895 1.00908 1.00869 1.00156 1.00106 1.00109 1.00059 1.00194 1.00156 1.00147 1.00109 1.00249 1.00218 1.00194 1.00156 1.00218 1.00171 1.00156 1.00106 0.997663 0.998007 0.99832 0.998541 0.998007 0.998311 0.998541 0.998748 0.998541 0.998748 0.999109 0.999195 0.99832 0.998541 0.99906 0.999109 0.998458 0.998726 0.99759 0.99797 0.999412 0.999534 0.998458 0.998726 0.999534 0.999651 0.998726 0.998962 0.998726 0.998962 0.99797 0.998296 1.00781 1.00809 1.00714 1.00737 1.00714 1.00737 1.00645 1.00663 1.00692 1.00714 1.00627 1.00645 1.00755 1.00781 1.00692 1.00714 1.01022 1.01043 1.01002 1.01017 1.01002 1.01017 1.00982 1.00992 1.00987 1.01002 1.00972 1.00982 1.01003 1.01022 1.00987 1.01002 0.998681 0.999928 1.00015 1.00129 0.999928 1.00096 1.00129 1.0022 1.00129 1.0022 1.00283 1.00353 1.00015 1.00129 1.00192 1.00283 1.009 1.00863 1.00938 1.0091 1.00863 1.00835 1.0091 1.00888 1.0091 1.00888 1.00948 1.00931 1.00938 1.0091 1.00969 1.00948 1.00913 1.00921 1.00932 1.00938 1.00932 1.00938 1.00959 1.00961 1.00923 1.00932 1.00954 1.00959 1.00902 1.00913 1.00923 1.00932 1.00907 1.00887 1.00888 1.00867 1.00935 1.00907 1.00917 1.00888 1.00948 1.00921 1.00935 1.00907 1.00921 1.00901 1.00907 1.00887 1.0058 1.00656 1.00572 1.00638 1.00586 1.00673 1.0058 1.00656 1.00673 1.00767 1.00656 1.00733 1.00656 1.00733 1.00638 1.00704 1.00105 1.00034 1.00153 1.00062 1.00071 1.00016 1.00105 1.00034 1.00016 0.999534 1.00034 0.999571 1.00034 0.999571 1.00062 0.999651 1.00892 1.00879 1.0098 1.00974 1.0098 1.00974 1.0107 1.01078 1.00978 1.0098 1.01054 1.0107 1.00899 1.00892 1.00978 1.0098 0.996141 0.996405 0.995494 0.995791 0.996736 0.996988 0.996141 0.996405 0.996988 0.997237 0.996405 0.996675 0.996405 0.996675 0.995791 0.99611 1.00078 1.00052 1.00056 1.00031 1.00099 1.00078 1.00075 1.00056 1.00129 1.00107 1.00099 1.00078 1.00107 1.00078 1.00078 1.00052 0.999788 0.999792 0.999686 0.999694 0.999775 0.999788 0.999687 0.999686 1.0067 1.00618 1.00652 1.006 1.00618 1.00564 1.006 1.00546 1.006 1.00546 1.00586 1.00532 1.00652 1.006 1.00637 1.00586 1.01456 1.01348 1.01542 1.01413 1.01548 1.01456 1.01644 1.01542 1.01465 1.0138 1.01548 1.01456 1.0138 1.01286 1.01456 1.01348 1.00201 1.00168 1.00195 1.00164 1.00168 1.00137 1.00164 1.00134 1.00164 1.00134 1.00158 1.0013 1.00195 1.00164 1.00188 1.00158 1.00024 0.999889 1.00007 0.999758 1.00052 1.00024 1.00031 1.00007 1.00078 1.00047 1.00052 1.00024 1.00047 1.00008 1.00024 0.999889 0.999853 0.999737 0.999955 0.999962 0.998136 0.997706 0.998053 0.997601 0.998501 0.998136 0.998437 0.998053 0.998608 0.998271 0.998501 0.998136 0.998271 0.997874 0.998136 0.997706 1.01669 1.01706 1.01771 1.01814 1.01706 1.01726 1.01814 1.01838 1.01814 1.01838 1.01948 1.01976 1.01771 1.01814 1.01896 1.01948 1.0192 1.02047 1.0187 1.02021 1.0187 1.02021 1.018 1.01961 1.01741 1.0187 1.01666 1.018 1.01806 1.0192 1.01741 1.0187 1.00733 1.00804 1.00704 1.00766 1.00767 1.00848 1.00733 1.00804 1.00848 1.00917 1.00804 1.00867 1.00804 1.00867 1.00766 1.00823 0.980191 0.977631 0.980707 0.978289 0.980025 0.977438 0.980191 0.977631 0.977438 0.97433 0.977631 0.974526 0.977631 0.974526 0.978289 0.975402 1.0037 1.00444 1.00356 1.00437 1.00378 1.00446 1.0037 1.00444 1.00446 1.00518 1.00444 1.00522 1.00444 1.00522 1.00437 1.00523 1.0088 1.00923 1.00904 1.00945 1.00845 1.0088 1.0087 1.00904 1.00814 1.00851 1.00845 1.0088 1.00851 1.00895 1.0088 1.00923 1.01164 1.0113 1.01239 1.01205 1.01098 1.01065 1.01164 1.0113 1.01065 1.01023 1.0113 1.01086 1.0113 1.01086 1.01205 1.01159 1.00263 1.00396 1.00407 1.00549 1.00407 1.00549 1.0052 1.00665 0.999892 0.999687 0.999889 0.999686 0.999889 0.999686 0.999897 0.999694 0.999934 0.999889 0.999932 0.999897 0.999937 0.999892 0.999934 0.999889 1.00972 1.01002 1.0097 1.01001 1.0097 1.01001 1.00969 1.01001 1.00942 1.0097 1.00939 1.00969 1.00946 1.00972 1.00942 1.0097 0.992154 0.991092 0.991024 0.989822 0.991092 0.989847 0.989822 0.988417 0.989822 0.988417 0.988753 0.987213 0.991024 0.989822 0.990071 0.988753 0.994777 0.994018 0.995443 0.994786 0.994015 0.993129 0.994777 0.994018 0.993129 0.99238 0.994018 0.993379 0.994018 0.993379 0.994786 0.994234 1.00292 1.0025 1.00214 1.00159 1.00214 1.00159 1.00146 1.00086 1.00258 1.00214 1.00196 1.00146 1.00325 1.00292 1.00258 1.00214 1.01032 1.0099 1.01027 1.0099 1.0099 1.00954 1.0099 1.00959 1.0099 1.00959 1.00989 1.00961 1.01027 1.0099 1.01021 1.00989 1.00001 1.00003 1.0001 1.00011 1.0001 1.00011 1.00002 1.00002 1.00009 1.0001 1.00001 1.00002 0.999983 1.00001 1.00009 1.0001 0.995235 0.994775 0.995867 0.995439 0.995867 0.995439 0.996496 0.99611 0.996275 0.995867 0.996863 0.996496 0.995674 0.995235 0.996275 0.995867 1.02202 1.0209 1.02373 1.02236 1.02056 1.01965 1.02202 1.0209 1.01965 1.01852 1.0209 1.01957 1.0209 1.01957 1.02236 1.02075 1.0163 1.01712 1.01578 1.01632 1.01556 1.0163 1.01518 1.01578 1.01595 1.01685 1.01556 1.0163 1.01685 1.01791 1.0163 1.01712 1.00177 1.00144 1.00187 1.00153 1.00163 1.00132 1.00177 1.00144 1.00132 1.00104 1.00144 1.00115 1.00144 1.00115 1.00153 1.00123 1.0114 1.01126 1.01178 1.01163 1.01155 1.0114 1.01194 1.01178 1.01116 1.01102 1.01155 1.0114 1.01102 1.0109 1.0114 1.01126 1.0093 1.00912 1.00921 1.00901 1.00956 1.0093 1.00948 1.00921 1.0096 1.00936 1.00956 1.0093 1.00936 1.00919 1.0093 1.00912 1.0017 1.00131 1.00126 1.00092 1.00131 1.001 1.00092 1.00066 1.00092 1.00066 1.00045 1.00026 1.00126 1.00092 1.00071 1.00045 1.01072 1.01031 1.01082 1.01036 1.01111 1.01072 1.01126 1.01082 1.01097 1.0106 1.01111 1.01072 1.0106 1.01024 1.01072 1.01031 1.01726 1.01625 1.01733 1.01632 1.01625 1.01543 1.01632 1.0155 1.01632 1.0155 1.01618 1.0154 1.01733 1.01632 1.01719 1.01618 0.996701 0.996372 0.997199 0.99692 0.997108 0.996701 0.997547 0.997199 0.996597 0.996117 0.997108 0.996701 0.996117 0.995723 0.996701 0.996372 0.995723 0.995362 0.996372 0.996072 0.995362 0.995114 0.996072 0.99587 0.996072 0.99587 0.996668 0.996503 0.996372 0.996072 0.99692 0.996668 1.01265 1.01228 1.01309 1.0127 1.01216 1.01184 1.01265 1.01228 1.01184 1.01154 1.01228 1.01196 1.01228 1.01196 1.0127 1.01236 0.996597 0.99606 0.996117 0.995501 0.99606 0.995443 0.995501 0.994786 0.995501 0.994786 0.995037 0.994234 0.996117 0.995501 0.995723 0.995037 1.00053 0.999412 1.00049 0.999139 1.00389 1.00389 1.00445 1.00437 1.00389 1.00388 1.00437 1.00427 1.00437 1.00427 1.00482 1.00463 1.00445 1.00437 1.00502 1.00482 1.00139 1.00109 1.00107 1.00078 1.00162 1.00139 1.00129 1.00107 1.00201 1.00178 1.00162 1.00139 1.00178 1.00147 1.00139 1.00109 1.01722 1.01531 1.01765 1.01536 1.01531 1.01355 1.01536 1.01326 1.00195 1.00148 1.00167 1.00127 1.00167 1.00127 1.00131 1.001 1.00217 1.00167 1.0017 1.00131 1.00252 1.00195 1.00217 1.00167 0.999917 0.999871 0.99991 0.999856 0.999932 0.999897 0.999917 0.999871 0.999897 0.999694 0.999871 0.999715 0.999871 0.999715 0.999856 0.999764 1.00545 1.00485 1.00624 1.00564 1.00478 1.0042 1.00545 1.00485 1.0042 1.00352 1.00485 1.0041 1.00485 1.0041 1.00564 1.00485 0.997702 0.997112 0.997237 0.996675 0.998094 0.997501 0.997702 0.997112 0.997501 0.996863 0.997112 0.996496 0.997112 0.996496 0.996675 0.99611 1.00405 1.00411 1.00347 1.00347 1.00347 1.00347 1.00292 1.00288 1.00347 1.00347 1.00296 1.00292 1.004 1.00405 1.00347 1.00347 1.01087 1.01097 1.01119 1.01132 1.01119 1.01132 1.01151 1.01166 1.01108 1.01119 1.01139 1.01151 1.01077 1.01087 1.01108 1.01119 1.01011 1.01029 1.0097 1.0099 1.00988 1.01011 1.00945 1.0097 1.01037 1.01058 1.00988 1.01011 1.01058 1.01074 1.01011 1.01029 1.01086 1.01039 1.01159 1.01115 1.01023 1.00975 1.01086 1.01039 1.00975 1.00917 1.01039 1.00979 1.01039 1.00979 1.01115 1.01054 0.992657 0.993593 0.993461 0.994201 0.993461 0.994201 0.994184 0.994775 0.992777 0.993461 0.993631 0.994184 0.99179 0.992657 0.992777 0.993461 0.999958 0.999787 0.999935 0.999764 0.999935 0.999764 0.999917 0.999718 0.999956 0.999935 0.999949 0.999917 0.999964 0.999958 0.999956 0.999935 1.01266 1.01342 1.01095 1.0113 1.01301 1.0133 1.01325 1.0136 1.00147 1.00109 1.00109 1.00073 1.00109 1.00059 1.00073 1.00029 1.00073 1.00029 1.00047 1.00008 1.00109 1.00073 1.00078 1.00047 1.02348 1.02535 1.02269 1.02449 1.02269 1.02449 1.02168 1.02353 1.02121 1.02269 1.02017 1.02168 1.02191 1.02348 1.02121 1.02269 1.01067 1.01078 1.01037 1.01045 1.01078 1.0109 1.01045 1.01054 1.01045 1.01054 1.01015 1.01021 1.01037 1.01045 1.01009 1.01015 1.00795 1.00743 1.00777 1.00725 1.00816 1.00764 1.00795 1.00743 1.00764 1.00709 1.00743 1.00688 1.00743 1.00688 1.00725 1.0067 1.01072 1.00988 1.0103 1.00951 1.01118 1.01029 1.01072 1.00988 1.01029 1.00933 1.00988 1.00899 1.00988 1.00899 1.00951 1.00868 1.00897 1.00847 1.009 1.00839 1.00891 1.00854 1.00897 1.00847 1.00854 1.00816 1.00847 1.00795 1.00847 1.00795 1.00839 1.00777 0.990508 0.990686 0.991813 0.991952 0.991813 0.991952 0.992908 0.993018 0.991866 0.991813 0.992955 0.992908 0.990572 0.990508 0.991866 0.991813 1.00606 1.00588 1.00464 1.0043 1.00615 1.00606 1.00486 1.00464 1.00748 1.00754 1.00615 1.00606 1.00754 1.00754 1.00606 1.00588 1.00731 1.00671 1.00709 1.00652 1.00755 1.00692 1.00731 1.00671 1.00692 1.00627 1.00671 1.0061 1.00671 1.0061 1.00652 1.00594 1.01132 1.01146 1.01166 1.0118 1.01097 1.01111 1.01132 1.01146 1.01111 1.01126 1.01146 1.01161 1.01146 1.01161 1.0118 1.01195 1.0077 1.00789 1.00723 1.00739 1.00758 1.0077 1.00713 1.00723 1.00797 1.00812 1.00758 1.0077 1.00812 1.00835 1.0077 1.00789 1.01088 1.01108 1.01037 1.01058 1.01147 1.01163 1.01088 1.01108 1.01163 1.01173 1.01108 1.01121 1.01108 1.01121 1.01058 1.01074 1.00909 1.00946 1.00888 1.00931 1.00885 1.00909 1.00862 1.00888 1.00902 1.00923 1.00885 1.00909 1.00923 1.00954 1.00909 1.00946 1.00633 1.00645 1.00682 1.00695 1.00645 1.0066 1.00695 1.00712 1.00695 1.00712 1.00743 1.00761 1.00682 1.00695 1.00729 1.00743 1.0219 1.02348 1.02222 1.02359 1.02348 1.02535 1.02359 1.02518 1.02359 1.02518 1.0235 1.02469 1.02222 1.02359 1.0224 1.0235 0.990552 0.989988 0.991709 0.991216 0.991315 0.990552 0.99238 0.991709 0.990071 0.989195 0.991315 0.990552 0.989195 0.988542 0.990552 0.989988 1.01553 1.01665 1.01586 1.01711 1.01459 1.01553 1.01484 1.01586 1.01409 1.01497 1.01459 1.01553 1.01497 1.016 1.01553 1.01665 0.987929 0.989476 0.988542 0.989988 0.987576 0.989206 0.987929 0.989476 0.989206 0.990572 0.989476 0.990786 0.989476 0.990786 0.989988 0.991216 1.01223 1.0129 1.01228 1.01288 1.01163 1.01223 1.01173 1.01228 1.01147 1.01211 1.01163 1.01223 1.01211 1.01284 1.01223 1.0129 0.995362 0.994615 0.995114 0.994319 0.995723 0.995037 0.995362 0.994615 0.995037 0.994234 0.994615 0.993737 0.994615 0.993737 0.994319 0.993381 1.0118 1.01195 1.01213 1.01229 1.01213 1.01229 1.01244 1.01262 1.01198 1.01213 1.01227 1.01244 1.01166 1.0118 1.01198 1.01213 1.00502 1.00497 1.00433 1.00435 1.00572 1.00559 1.00502 1.00497 1.00559 1.00546 1.00497 1.0049 1.00497 1.0049 1.00435 1.00434 1.0124 1.01274 1.01229 1.01262 1.01208 1.0124 1.01195 1.01229 1.01221 1.01252 1.01208 1.0124 1.01252 1.01284 1.0124 1.01274 1.00572 1.00638 1.00559 1.0062 1.00638 1.00704 1.0062 1.00681 1.0062 1.00681 1.00604 1.0066 1.00559 1.0062 1.00546 1.00604 0.998406 0.998437 0.998007 0.998053 0.998007 0.998053 0.997535 0.997601 0.998021 0.998007 0.997544 0.997535 0.998422 0.998406 0.998021 0.998007 1.01365 1.01404 1.0133 1.0136 1.01399 1.01451 1.01365 1.01404 1.01451 1.01495 1.01404 1.01437 1.00974 1.00963 1.01078 1.0108 1.00879 1.00857 1.00974 1.00963 1.00857 1.00821 1.00963 1.00939 1.00963 1.00939 1.0108 1.01072 1.00963 1.00965 1.00996 1.00999 1.00932 1.00936 1.00963 1.00965 1.00936 1.00939 1.00965 1.00969 1.00965 1.00969 1.00999 1.01001 1.01355 1.01167 1.01326 1.01119 1.01167 1.01003 1.01119 1.00939 1.00793 1.00761 1.00814 1.0078 1.00761 1.00729 1.0078 1.00743 1.0078 1.00743 1.00801 1.00761 1.00814 1.0078 1.00838 1.00801 0.99916 0.999439 0.998897 0.999189 0.998897 0.999189 0.998569 0.998854 0.998649 0.998897 0.998327 0.998569 0.99892 0.99916 0.998649 0.998897 1.00966 1.00916 1.0092 1.00873 1.0092 1.00873 1.00867 1.00823 1.00975 1.0092 1.00917 1.00867 1.01023 1.00966 1.00975 1.0092 1.00965 1.00988 1.00923 1.00945 1.00937 1.00965 1.00895 1.00923 1.00985 1.01014 1.00937 1.00965 1.01014 1.01037 1.00965 1.00988 1.00941 1.00897 1.00954 1.009 1.00993 1.00941 1.01019 1.00954 1.0096 1.00924 1.00993 1.00941 1.00924 1.00891 1.00941 1.00897 1.01322 1.01253 1.0138 1.01286 1.01381 1.01322 1.01465 1.0138 1.01309 1.01269 1.01381 1.01322 1.01269 1.01222 1.01322 1.01253 1.01036 1.0106 1.01031 1.01058 1.01013 1.01036 1.01006 1.01031 1.01021 1.01041 1.01013 1.01036 1.01041 1.01062 1.01036 1.0106 1.01331 1.01438 1.01261 1.01355 1.01261 1.01355 1.01178 1.01246 1.0118 1.01261 1.01118 1.01178 1.01237 1.01331 1.0118 1.01261 1.00369 1.00376 1.00418 1.00426 1.00322 1.00329 1.00369 1.00376 1.00329 1.00335 1.00376 1.00383 1.00376 1.00383 1.00426 1.00434 1.00153 1.00123 1.00161 1.00129 1.00161 1.00129 1.00166 1.00134 1.00195 1.00161 1.00202 1.00166 1.00187 1.00153 1.00195 1.00161 1.00616 1.00624 1.00564 1.00573 1.00624 1.00637 1.00573 1.00586 1.00573 1.00586 1.00519 1.00532 1.00564 1.00573 1.0051 1.00519 1.0076 1.00783 1.0068 1.00696 1.00737 1.0076 1.00663 1.0068 1.00809 1.00838 1.00737 1.0076 1.00838 1.00868 1.0076 1.00783 1.0106 1.01083 1.01058 1.01086 1.01062 1.0108 1.0106 1.01083 1.0108 1.01097 1.01083 1.01104 1.01083 1.01104 1.01086 1.01112 1.00951 1.00948 1.00932 1.00928 1.00948 1.00946 1.00928 1.00925 1.00928 1.00925 1.00913 1.00909 1.00932 1.00928 1.00917 1.00913 1.01539 1.01672 1.0131 1.01388 1.01672 1.01824 1.01388 1.0148 1.01388 1.0148 1.01088 1.01092 1.0131 1.01388 1.01078 1.01088 1.01708 1.01756 1.01574 1.01652 1.01756 1.01806 1.01652 1.01741 1.01652 1.01741 1.01541 1.01666 1.01574 1.01652 1.01438 1.01541 1.00839 1.00866 1.00814 1.00844 1.0087 1.00897 1.00839 1.00866 1.00897 1.00917 1.00866 1.00888 1.00866 1.00888 1.00844 1.00867 0.990628 0.991711 0.99179 0.992657 0.989298 0.990657 0.990628 0.991711 0.990657 0.99213 0.991711 0.992882 0.991711 0.992882 0.992657 0.993593 1.01097 1.01105 1.0111 1.01122 1.01105 1.01114 1.01122 1.01136 0.995586 0.995689 0.996318 0.996464 0.995644 0.995586 0.996338 0.996318 0.994815 0.994719 0.995644 0.995586 0.994719 0.99475 0.995586 0.995689 0.998748 0.998901 0.999195 0.999228 0.998311 0.998601 0.998748 0.998901 0.998601 0.998854 0.998901 0.999049 0.998901 0.999049 0.999228 0.999273 1.00146 1.00086 1.00115 1.00033 1.00115 1.00033 1.00091 0.999927 1.00182 1.00115 1.00171 1.00091 1.00196 1.00146 1.00182 1.00115 1.00883 1.00637 1.0092 1.00691 1.0092 1.00691 1.00941 1.00729 1.0116 1.0092 1.0116 1.00941 1.01143 1.00883 1.0116 1.0092 1.01054 1.01088 1.01067 1.01101 1.01043 1.01078 1.01054 1.01088 1.01078 1.01112 1.01088 1.01122 1.01088 1.01122 1.01101 1.01133 0.999156 0.99892 0.999016 0.998746 0.999016 0.998746 0.998902 0.998608 0.99935 0.999156 0.999238 0.999016 1.00297 1.00295 1.00252 1.00252 1.0034 1.00338 1.00297 1.00295 1.00338 1.00335 1.00295 1.00291 1.00295 1.00291 1.00252 1.00248 1.01033 1.00996 1.01037 1.00999 1.01098 1.01038 1.01065 1.01005 1.01038 1.00985 1.01005 1.00954 1.01005 1.00954 1.00966 1.00916 1.01065 1.0