# vtk DataFile Version 3.0
#This file was generated by the deal.II library on 2020/12/12 at 20:44:25
ASCII
DATASET UNSTRUCTURED_GRID

POINTS 51160 double
-13.0654 9.56144 0
-12.1916 9.42079 0
-13.0561 10.4348 0
-12.3435 10.31 0
-13.9392 9.7021 0
-13.0654 9.56144 0
-13.7687 10.5597 0
-13.0561 10.4348 0
-14.1096 8.84451 0
-13.0746 8.68805 0
-13.9392 9.7021 0
-13.0654 9.56144 0
-13.0746 8.68805 0
-12.0397 8.53159 0
-13.0654 9.56144 0
-12.1916 9.42079 0
-11.3778 -4.58678 0
-12.1551 -4.95182 0
-11.1051 -5.40063 0
-11.8176 -5.76034 0
-10.6004 -4.22174 0
-11.3778 -4.58678 0
-10.3926 -5.04092 0
-11.1051 -5.40063 0
-10.8083 -3.40256 0
-11.6505 -3.77293 0
-10.6004 -4.22174 0
-11.3778 -4.58678 0
-11.6505 -3.77293 0
-12.4927 -4.1433 0
-11.3778 -4.58678 0
-12.1551 -4.95182 0
-6.11045 -8.77924 0
-5.85746 -7.99763 0
-6.76256 -8.2998 0
-6.5839 -7.61018 0
-6.36345 -9.56085 0
-6.11045 -8.77924 0
-6.94122 -8.98943 0
-6.76256 -8.2998 0
-5.78567 -10.1323 0
-5.45834 -9.25867 0
-6.36345 -9.56085 0
-6.11045 -8.77924 0
-5.45834 -9.25867 0
-5.13101 -8.38508 0
-6.11045 -8.77924 0
-5.85746 -7.99763 0
-9.02089 9.96417 0
-8.08309 10.3193 0
-9.37119 10.9985 0
-8.26452 11.2925 0
-9.37119 10.9985 0
-8.26452 11.2925 0
-9.72149 12.0329 0
-8.44595 12.2656 0
-10.4779 10.7046 0
-9.37119 10.9985 0
-10.997 11.8001 0
-9.72149 12.0329 0
-9.95869 9.60903 0
-9.02089 9.96417 0
-10.4779 10.7046 0
-9.37119 10.9985 0
-14.3694 13.8502 0
-14.5427 12.6333 0
-13.1589 13.7159 0
-13.4048 12.5429 0
-14.196 15.0671 0
-14.3694 13.8502 0
-12.9131 14.8889 0
-13.1589 13.7159 0
-15.479 15.2454 0
-15.5799 13.9846 0
-14.196 15.0671 0
-14.3694 13.8502 0
-15.5799 13.9846 0
-15.6807 12.7237 0
-14.3694 13.8502 0
-14.5427 12.6333 0
-8.1571 -9.31088 0
-8.35977 -8.43209 0
-9.11259 -9.60724 0
-9.18316 -8.74457 0
-8.35977 -8.43209 0
-8.56243 -7.55331 0
-9.18316 -8.74457 0
-9.25373 -7.8819 0
-9.18316 -8.74457 0
-9.25373 -7.8819 0
-10.0066 -9.05704 0
-9.94504 -8.21048 0
-9.11259 -9.60724 0
-9.18316 -8.74457 0
-10.0681 -9.9036 0
-10.0066 -9.05704 0
-16.3679 -22.6494 0
-16.4198 -24.0542 0
-14.9526 -22.6347 0
-14.9617 -24.047 0
-16.3159 -21.2446 0
-16.3679 -22.6494 0
-14.9435 -21.2224 0
-14.9526 -22.6347 0
1.95819 19.6924 0
2.07127 20.8663 0
0.815259 19.7215 0
0.948874 20.8494 0
1.84511 18.5185 0
1.95819 19.6924 0
0.681645 18.5936 0
0.815259 19.7215 0
3.00857 18.4434 0
3.10112 19.6633 0
1.84511 18.5185 0
1.95819 19.6924 0
3.10112 19.6633 0
3.19367 20.8831 0
1.95819 19.6924 0
2.07127 20.8663 0
8.25251 -11.3587 0
9.00931 -12.2209 0
9.12099 -10.6468 0
9.91964 -11.4328 0
7.49571 -10.4965 0
8.25251 -11.3587 0
8.32233 -9.86077 0
9.12099 -10.6468 0
6.66908 -11.1322 0
7.38403 -12.0706 0
7.49571 -10.4965 0
8.25251 -11.3587 0
7.38403 -12.0706 0
8.09899 -13.009 0
8.25251 -11.3587 0
9.00931 -12.2209 0
8.09899 -13.009 0
9.00712 -14.1696 0
9.00931 -12.2209 0
9.9229 -13.2142 0
9.00712 -14.1696 0
9.91526 -15.3302 0
9.9229 -13.2142 0
10.8365 -14.2075 0
9.9229 -13.2142 0
10.8365 -14.2075 0
10.8387 -12.2587 0
11.7577 -13.0847 0
9.00931 -12.2209 0
9.9229 -13.2142 0
9.91964 -11.4328 0
10.8387 -12.2587 0
2.86611 10.5174 0
2.32084 9.73096 0
3.56597 9.88875 0
2.97321 9.21856 0
3.41138 11.3039 0
2.86611 10.5174 0
4.15872 10.5589 0
3.56597 9.88875 0
2.66404 12.0489 0
2.16626 11.1461 0
3.41138 11.3039 0
2.86611 10.5174 0
2.16626 11.1461 0
1.66847 10.2434 0
2.86611 10.5174 0
2.32084 9.73096 0
-8.14005 -2.18676 0
-7.73499 -2.64661 0
-7.64385 -1.68765 0
-7.25625 -2.21434 0
-7.73499 -2.64661 0
-7.32994 -3.10646 0
-7.25625 -2.21434 0
-6.86866 -2.74104 0
-7.25625 -2.21434 0
-6.86866 -2.74104 0
-6.77752 -1.78208 0
-6.40738 -2.37562 0
11.3046 -9.674 0
10.6121 -10.5534 0
12.5792 -10.33 0
11.709 -11.2944 0
10.6121 -10.5534 0
9.91964 -11.4328 0
11.709 -11.2944 0
10.8387 -12.2587 0
11.709 -11.2944 0
10.8387 -12.2587 0
12.8058 -12.0354 0
11.7577 -13.0847 0
12.5792 -10.33 0
11.709 -11.2944 0
13.8539 -10.986 0
12.8058 -12.0354 0
7.15195 7.11904 0
6.59859 7.83988 0
6.46794 6.56736 0
5.92428 7.27021 0
18.3015 -8.42645 0
16.7898 -8.85256 0
18.7694 -9.94245 0
17.2084 -10.318 0
7.51395 15.0241 0
7.04739 14.2267 0
8.53025 14.3092 0
7.93099 13.5023 0
7.04739 14.2267 0
6.58084 13.4293 0
7.93099 13.5023 0
7.33174 12.6954 0
7.93099 13.5023 0
7.33174 12.6954 0
8.81459 12.7779 0
8.08264 11.9614 0
8.53025 14.3092 0
7.93099 13.5023 0
9.54654 13.5944 0
8.81459 12.7779 0
42.7917 -22.6083 0
42.6141 -20.1099 0
40.4206 -22.6978 0
40.1808 -20.2278 0
42.9694 -25.1068 0
42.7917 -22.6083 0
40.6604 -25.1678 0
40.4206 -22.6978 0
45.2784 -25.0457 0
45.1629 -22.5188 0
42.9694 -25.1068 0
42.7917 -22.6083 0
45.1629 -22.5188 0
45.0474 -19.992 0
42.7917 -22.6083 0
42.6141 -20.1099 0
-6.72394 -0.00354 0
-6.62726 -0.486762 0
-6.3854 0.174247 0
-6.14946 -0.288596 0
-7.06247 -0.181327 0
-7.10506 -0.684929 0
-6.72394 -0.00354 0
-6.62726 -0.486762 0
-7.10506 -0.684929 0
-7.14765 -1.18853 0
-6.62726 -0.486762 0
-6.53058 -0.969985 0
-11.6843 -10.534 0
-11.3421 -9.37411 0
-12.811 -10.1587 0
-12.6162 -8.84462 0
-12.0264 -11.6938 0
-11.6843 -10.534 0
-13.0058 -11.4729 0
-12.811 -10.1587 0
-11.0469 -11.9148 0
-10.5575 -10.9092 0
-12.0264 -11.6938 0
-11.6843 -10.534 0
-10.5575 -10.9092 0
-10.0681 -9.9036 0
-11.6843 -10.534 0
-11.3421 -9.37411 0
-13.846 -2.92122 0
-13.5619 -3.67421 0
-13.1208 -2.63835 0
-12.8068 -3.39082 0
-14.5712 -3.20408 0
-14.3171 -3.95759 0
-13.846 -2.92122 0
-13.5619 -3.67421 0
-14.3171 -3.95759 0
-14.0631 -4.7111 0
-13.5619 -3.67421 0
-13.2779 -4.4272 0
-13.5619 -3.67421 0
-13.2779 -4.4272 0
-12.8068 -3.39082 0
-12.4927 -4.1433 0
-2.897 17.6627 0
-4.04849 17.7308 0
-3.0196 16.5232 0
-4.15098 16.595 0
-1.74551 17.5947 0
-2.897 17.6627 0
-1.88822 16.4514 0
-3.0196 16.5232 0
-1.60281 18.7379 0
-2.77441 18.8023 0
-1.74551 17.5947 0
-2.897 17.6627 0
-2.77441 18.8023 0
-3.946 18.8667 0
-2.897 17.6627 0
-4.04849 17.7308 0
3.00857 18.4434 0
1.84511 18.5185 0
2.81606 17.2931 0
1.67644 17.3652 0
1.84511 18.5185 0
0.681645 18.5936 0
1.67644 17.3652 0
0.536818 17.4374 0
1.67644 17.3652 0
0.536818 17.4374 0
1.50777 16.212 0
0.391992 16.2811 0
2.81606 17.2931 0
1.67644 17.3652 0
2.62355 16.1428 0
1.50777 16.212 0
-3.19772 -6.94528 0
-2.50797 -6.64265 0
-3.52495 -6.48739 0
-2.97313 -6.25495 0
-3.52495 -6.48739 0
-2.97313 -6.25495 0
-3.85219 -6.02951 0
-3.43828 -5.86725 0
-4.07678 -6.71984 0
-3.52495 -6.48739 0
-4.26609 -6.19176 0
-3.85219 -6.02951 0
-3.88746 -7.24791 0
-3.19772 -6.94528 0
-4.07678 -6.71984 0
-3.52495 -6.48739 0
0.31331 8.23901 0
0.903681 7.81679 0
0.728486 8.87863 0
1.3339 8.41862 0
-4.76391 -2.45199 0
-4.7046 -2.90658 0
-4.32092 -2.48747 0
-4.24799 -2.82176 0
-4.82322 -1.99741 0
-4.76391 -2.45199 0
-4.39385 -2.15317 0
-4.32092 -2.48747 0
-5.25259 -1.84164 0
-5.20689 -2.41652 0
-4.82322 -1.99741 0
-4.76391 -2.45199 0
-5.20689 -2.41652 0
-5.1612 -2.99141 0
-4.76391 -2.45199 0
-4.7046 -2.90658 0
-5.41662 13.5 0
-6.41428 13.4866 0
-5.45269 12.5262 0
-6.40321 12.5005 0
-4.41897 13.5135 0
-5.41662 13.5 0
-4.50217 12.5518 0
-5.45269 12.5262 0
-4.33577 14.4752 0
-5.38056 14.4739 0
-4.41897 13.5135 0
-5.41662 13.5 0
-5.38056 14.4739 0
-6.42535 14.4727 0
-5.41662 13.5 0
-6.41428 13.4866 0
6.6902 9.16194 0
6.00661 8.53399 0
7.30747 8.44291 0
6.59859 7.83988 0
7.3738 9.78988 0
6.6902 9.16194 0
8.01634 9.04594 0
7.30747 8.44291 0
6.73126 10.5338 0
6.07294 9.88096 0
7.3738 9.78988 0
6.6902 9.16194 0
6.07294 9.88096 0
5.41462 9.2281 0
6.6902 9.16194 0
6.00661 8.53399 0
14.5881 16.1667 0
15.3796 14.6314 0
16.1248 16.4807 0
16.6412 14.9723 0
16.1248 16.4807 0
16.6412 14.9723 0
17.6615 16.7946 0
17.9029 15.3132 0
15.6084 17.9891 0
16.1248 16.4807 0
17.42 18.2761 0
17.6615 16.7946 0
13.7967 17.702 0
14.5881 16.1667 0
15.6084 17.9891 0
16.1248 16.4807 0
-7.64385 -1.68765 0
-7.14765 -1.18853 0
-8.1275 -1.31218 0
-7.70441 -0.857199 0
-8.1275 -1.31218 0
-7.70441 -0.857199 0
-8.61115 -0.936712 0
-8.26118 -0.525867 0
-8.55058 -1.76716 0
-8.1275 -1.31218 0
-8.96112 -1.34756 0
-8.61115 -0.936712 0
-8.14005 -2.18676 0
-7.64385 -1.68765 0
-8.55058 -1.76716 0
-8.1275 -1.31218 0
-5.06801 -3.50136 0
-4.58853 -3.38416 0
-5.1612 -2.99141 0
-4.7046 -2.90658 0
11.0704 10.1465 0
10.3835 11.0636 0
10.1966 9.4768 0
9.54128 10.3507 0
11.7573 9.22937 0
11.0704 10.1465 0
10.852 8.60291 0
10.1966 9.4768 0
12.6625 9.85582 0
11.9441 10.8161 0
11.7573 9.22937 0
11.0704 10.1465 0
11.9441 10.8161 0
11.2257 11.7765 0
11.0704 10.1465 0
10.3835 11.0636 0
1.19848 9.561 0
1.82737 9.07479 0
1.66847 10.2434 0
2.32084 9.73096 0
0.728486 8.87863 0
1.3339 8.41862 0
1.19848 9.561 0
1.82737 9.07479 0
1.3339 8.41862 0
1.93932 7.9586 0
1.82737 9.07479 0
2.45626 8.58858 0
1.82737 9.07479 0
2.45626 8.58858 0
2.32084 9.73096 0
2.97321 9.21856 0
-15.8864 2.48543 0
-15.7439 1.7915 0
-15.034 2.93672 0
-14.6725 1.9709 0
-15.034 2.93672 0
-14.6725 1.9709 0
-14.1816 3.388 0
-13.6012 2.15031 0
-15.3955 3.90253 0
-15.034 2.93672 0
-14.7621 4.6257 0
-14.1816 3.388 0
-16.0289 3.17937 0
-15.8864 2.48543 0
-15.3955 3.90253 0
-15.034 2.93672 0
-7.37643 -3.99562 0
-6.96029 -4.50191 0
-6.83062 -3.61093 0
-6.33131 -4.11541 0
-7.79257 -3.48934 0
-7.37643 -3.99562 0
-7.32994 -3.10646 0
-6.83062 -3.61093 0
-8.25521 -3.87222 0
-7.92224 -4.38031 0
-7.79257 -3.48934 0
-7.37643 -3.99562 0
-7.92224 -4.38031 0
-7.58927 -4.8884 0
-7.37643 -3.99562 0
-6.96029 -4.50191 0
-15.1138 22.5577 0
-13.5797 22.5767 0
-15.1178 24.0605 0
-13.5872 24.0748 0
-15.1097 21.0549 0
-13.5722 21.0786 0
-15.1138 22.5577 0
-13.5797 22.5767 0
-13.5722 21.0786 0
-12.0347 21.1022 0
-13.5797 22.5767 0
-12.0456 22.5957 0
-13.5797 22.5767 0
-12.0456 22.5957 0
-13.5872 24.0748 0
-12.0565 24.0891 0
-13.5929 25.5566 0
-13.5872 24.0748 0
-12.0512 25.5659 0
-12.0565 24.0891 0
-13.5986 27.0384 0
-13.5929 25.5566 0
-12.0458 27.0427 0
-12.0512 25.5659 0
-15.1513 27.034 0
-15.1346 25.5472 0
-13.5986 27.0384 0
-13.5929 25.5566 0
-15.1346 25.5472 0
-15.1178 24.0605 0
-13.5929 25.5566 0
-13.5872 24.0748 0
25.6326 -18.1524 0
27.0338 -18.8844 0
26.0554 -16.2469 0
27.325 -17.2916 0
25.2098 -20.0578 0
26.7426 -20.4771 0
25.6326 -18.1524 0
27.0338 -18.8844 0
26.7426 -20.4771 0
[...]
POINT_DATA 51160
SCALARS solution_0 double 1
LOOKUP_TABLE default
0.999422 0.999369 0.999682 0.999669 0.999479 0.999422 0.999701 0.999682 0.999257 0.999142 0.999479 0.999422 0.999142 0.999024 0.999422 0.999369 0.997246 0.997709 0.997604 0.997992 0.996683 0.997246 0.99714 0.997604 0.996313 0.996963 0.996683 0.997246 0.996963 0.997493 0.997246 0.997709 1.00083 1.00035 1.00007 0.999527 1.00119 1.00083 1.0005 1.00007 1.00187 1.00163 1.00119 1.00083 1.00163 1.00128 1.00083 1.00035 0.999908 1.00034 1.0003 1.00072 1.0003 1.00072 1.00059 1.00102 0.999978 1.0003 1.00027 1.00059 0.999574 0.999908 0.999978 1.0003 1.00033 1.00011 1.00043 1.00018 1.00052 1.00033 1.00066 1.00043 1.00041 1.00025 1.00052 1.00033 1.00025 1.00007 1.00033 1.00011 1.00021 0.999575 1.0001 0.999607 0.999575 0.998868 0.999607 0.999029 0.999607 0.999029 0.999644 0.999177 1.0001 0.999607 1.00003 0.999644 1.00083 1.00085 1.00103 1.00106 1.0008 1.00083 1.00099 1.00103 1.00545 1.00529 1.00508 1.00497 1.00564 1.00545 1.00522 1.00508 1.00603 1.0058 1.00564 1.00545 1.0058 1.0056 1.00545 1.00529 1.01042 1.00993 1.01076 1.01026 1.01101 1.01042 1.01135 1.01076 1.01056 1.00999 1.01101 1.01042 1.00999 1.00952 1.01042 1.00993 1.00952 1.00902 1.00993 1.00945 1.00902 1.0086 1.00945 1.00905 1.00945 1.00905 1.00982 1.00944 1.00993 1.00945 1.01026 1.00982 1.0094 1.00969 1.01037 1.01071 1.00912 1.0094 1.01005 1.01037 1.00823 1.00848 1.00912 1.0094 1.00848 1.00872 1.0094 1.00969 0.992966 0.992958 0.991702 0.991694 0.992958 0.993122 0.991694 0.991941 0.991694 0.991941 0.990171 0.990499 1.01082 1.01058 1.01032 1.01011 1.01058 1.01026 1.01011 1.00982 1.01011 1.00982 1.00972 1.00944 1.01032 1.01011 1.00991 1.00972 1.01347 1.01298 1.01441 1.01382 1.00976 1.00993 1.00948 1.0096 1.00829 1.00854 1.00871 1.009 1.00854 1.00884 1.009 1.00934 1.009 1.00934 1.00942 1.0098 1.00871 1.009 1.00909 1.00942 1.00718 1.00737 1.00721 1.0074 1.00704 1.00718 1.00707 1.00721 1.00701 1.00716 1.00704 1.00718 1.00716 1.00735 1.00718 1.00737 0.988472 0.988365 0.987442 0.986767 0.989406 0.989724 0.988472 0.988365 0.989724 0.99026 0.988365 0.988518 1.00005 0.999643 0.999834 0.999405 1.00035 1.00005 1.00017 0.999834 1.00057 1.00034 1.00035 1.00005 1.00034 1.00003 1.00005 0.999643 0.997683 0.997761 0.99729 0.99736 0.998017 0.998096 0.997683 0.997761 0.998096 0.998216 0.997761 0.997888 0.997761 0.997888 0.99736 0.997493 1.00395 1.00349 1.00395 1.00346 1.00442 1.00395 1.00447 1.00395 1.00436 1.00393 1.00442 1.00395 1.00393 1.0035 1.00395 1.00349 1.00603 1.00564 1.00625 1.00582 1.00564 1.00522 1.00582 1.00537 1.00582 1.00537 1.00604 1.00554 1.00625 1.00582 1.0065 1.00604 1.00246 1.00363 1.00128 1.00209 1.00128 1.00209 0.999972 1.00045 1.00071 1.00128 0.999619 0.999972 1.00164 1.00246 1.00071 1.00128 1.00862 1.01002 1.00874 1.01 0.987434 0.989311 0.986734 0.988389 0.985696 0.987434 0.985163 0.986734 0.986434 0.98826 0.985696 0.987434 0.98826 0.990191 0.987434 0.989311 1.00263 1.00215 1.00241 1.00191 1.00317 1.00263 1.00298 1.00241 1.0033 1.00279 1.00317 1.00263 1.00279 1.00232 1.00263 1.00215 1.01172 1.01236 1.01225 1.01298 1.01118 1.01172 1.01164 1.01225 1.01063 1.0111 1.01118 1.01172 1.0111 1.01164 1.01172 1.01236 1.00839 1.00875 1.00833 1.00864 1.00833 1.00864 1.00826 1.00854 1.008 1.00833 1.00798 1.00826 1.008 1.00839 1.008 1.00833 0.991702 0.99026 0.992197 0.991148 0.992197 0.991148 0.992743 0.992017 0.993153 0.992197 0.993438 0.992743 0.992966 0.991702 0.993153 0.992197 0.991887 0.991224 0.990191 0.989311 1.01049 1.01018 1.01095 1.01061 1.01072 1.01049 1.01119 1.01095 1.01033 1.01011 1.01072 1.01049 1.01011 1.00981 1.01049 1.01018 1.00877 1.00987 1.00872 1.00969 1.00874 1.01 1.00877 1.00987 1.01 1.01133 1.00987 1.01105 1.00987 1.01105 1.00969 1.01071 0.998287 0.99818 0.998047 0.997785 0.998047 0.997785 0.997818 0.997329 0.998325 0.998047 0.998277 0.997818 0.998412 0.998287 0.998325 0.998047 0.994562 0.995173 0.993496 0.994181 0.994138 0.994562 0.993122 0.993496 0.99499 0.995427 0.994138 0.994562 0.995427 0.99598 0.994562 0.995173 1.00092 1.00116 1.00096 1.0012 1.00087 1.00111 1.00092 1.00116 1.00111 1.00137 1.00116 1.00142 1.00116 1.00142 1.0012 1.00145 1.00122 1.0012 1.00148 1.00145 1.00124 1.00122 1.00149 1.00148 1.00099 1.00098 1.00124 1.00122 1.00098 1.00096 1.00122 1.0012 1.00785 1.00774 1.00808 1.00792 1.00764 1.00757 1.00785 1.00774 1.00757 1.00751 1.00774 1.00764 1.00774 1.00764 1.00792 1.00778 1.00545 1.0051 1.00537 1.00502 1.00558 1.00522 1.00545 1.0051 1.00522 1.00484 1.0051 1.00473 1.0051 1.00473 1.00502 1.00465 1.0008 1.00099 1.00076 1.00094 1.00076 1.00094 1.00069 1.00086 1.0006 1.00076 1.00055 1.00069 0.998677 0.998365 0.998629 0.99834 0.998365 0.997995 0.99834 0.997993 0.99834 0.997993 0.998363 0.998037 0.998629 0.99834 0.998649 0.998363 1.01164 1.01221 1.01236 1.01308 1.01221 1.01287 1.01308 1.0139 1.01236 1.01308 1.01298 1.01382 1.00374 1.00317 1.00356 1.00298 1.00437 1.00374 1.00422 1.00356 1.00447 1.00386 1.00437 1.00374 1.00386 1.0033 1.00374 1.00317 1.0065 1.00604 1.00679 1.0063 1.00604 1.00554 1.0063 1.00576 1.0063 1.00576 1.00661 1.00601 1.00679 1.0063 1.00711 1.00661 0.998572 0.999527 0.998384 0.999393 0.998384 0.999393 0.9982 0.999261 0.997307 0.998384 0.997074 0.9982 0.997545 0.998572 0.997307 0.998384 1.0064 1.00627 1.00666 1.0065 1.00662 1.0064 1.00692 1.00666 1.00625 1.0061 1.00662 1.0064 1.0061 1.006 1.0064 1.00627 1.00522 1.00479 1.00537 1.0049 1.00479 1.00436 1.0049 1.00442 1.0049 1.00442 1.005 1.00447 1.00537 1.0049 1.00554 1.005 1.00187 1.00119 1.00146 1.00092 1.00119 1.0005 1.00092 1.00033 1.00092 1.00033 1.00072 1.00021 1.00146 1.00092 1.00116 1.00072 1.00184 1.00143 1.00208 1.00169 1.00208 1.00169 1.00225 1.00188 1.00254 1.00208 1.00268 1.00225 1.00235 1.00184 1.00254 1.00208 0.999915 0.999903 0.999879 0.999842 0.999879 0.999842 0.999688 0.99974 0.99992 0.999879 0.999673 0.999688 0.999936 0.999915 0.99992 0.999879 1.00383 1.00413 1.00323 1.00353 1.00445 1.00479 1.00383 1.00413 1.00479 1.00506 1.00413 1.00436 1.00413 1.00436 1.00353 1.00374 0.999283 0.999331 0.999514 0.999526 0.999331 0.999412 0.999526 0.999565 0.999526 0.999565 0.999691 0.999705 0.999514 0.999526 0.999698 0.999691 1.00835 1.00823 1.00904 1.00912 1.00904 1.00912 1.00976 1.01005 1.00892 1.00904 1.00947 1.00976 1.00838 1.00835 1.00892 1.00904 1.00374 1.0033 1.00377 1.0034 1.0033 1.0029 1.0034 1.00307 1.0034 1.00307 1.00348 1.0032 1.00377 1.0034 1.00379 1.00348 0.997666 0.997292 0.99781 0.997397 0.997292 0.99686 0.997397 0.996908 0.997397 0.996908 0.997602 0.997019 0.99781 0.997397 0.99809 0.997602 1.00506 1.00536 1.00436 1.00465 1.00536 1.00557 1.00465 1.00486 1.00465 1.00486 1.00402 1.00422 1.00436 1.00465 1.00374 1.00402 1.00706 1.00693 1.00713 1.00701 1.00724 1.00706 1.0073 1.00713 1.00717 1.00697 1.00724 1.00706 1.00697 1.00683 1.00706 1.00693 0.99778 0.99921 0.996704 0.998162 0.996704 0.998162 0.996011 0.997427 0.999858 0.999673 0.999812 0.999688 0.999812 0.999688 0.999703 0.99974 1.00867 1.009 1.00769 1.00787 1.00836 1.00867 1.0075 1.00769 1.00918 1.00962 1.00836 1.00867 1.00962 1.01011 1.00867 1.009 0.997801 0.997174 0.99812 0.997461 0.998319 0.997801 0.998657 0.99812 0.99809 0.997602 0.998319 0.997801 0.997602 0.997019 0.997801 0.997174 1.0067 1.00645 1.00692 1.00675 1.00645 1.00625 1.00675 1.00662 1.00675 1.00662 1.00701 1.00692 1.00692 1.00675 1.00711 1.00701 0.99812 0.997461 0.998487 0.997839 0.998487 0.997839 0.998985 0.99837 0.99901 0.998487 0.999478 0.998985 0.998657 0.99812 0.99901 0.998487 1.00934 1.00896 1.00926 1.00892 1.00976 1.00934 1.0096 1.00926 1.00991 1.00942 1.00976 1.00934 1.00942 1.00899 1.00934 1.00896 0.99714 0.997604 0.997479 0.997914 0.997604 0.997992 0.997914 0.998282 0.997914 0.998282 0.998294 0.998639 0.997479 0.997914 0.997881 0.998294 1.00119 1.00094 1.00127 1.00106 1.00094 1.00066 1.00106 1.00081 1.00106 1.00081 1.00118 1.00099 1.00127 1.00106 1.00134 1.00118 1.00119 1.00155 1.0013 1.00163 1.00155 1.00194 1.00163 1.00199 1.00163 1.00199 1.00168 1.00201 1.0013 1.00163 1.00137 1.00168 0.997064 0.997479 0.997489 0.997881 0.996583 0.997064 0.997032 0.997489 0.99621 0.996706 0.996583 0.997064 0.996706 0.99714 0.997064 0.997479 1.00795 1.00821 1.00797 1.00824 1.00797 1.00824 1.00799 1.00828 1.00773 1.00797 1.00773 1.00799 1.00772 1.00795 1.00773 1.00797 0.995022 0.994885 0.994393 0.994198 0.994393 0.994198 0.993698 0.993438 0.99465 0.994393 0.994014 0.993698 0.995228 0.995022 0.99465 0.994393 1.00206 1.0017 1.0019 1.00153 1.00247 1.00206 1.00232 1.0019 1.00256 1.00217 1.00247 1.00206 1.00217 1.00182 1.00206 1.0017 1.00759 1.00761 1.00744 1.00746 1.00744 1.00746 1.00732 1.00735 1.00741 1.00744 1.00729 1.00732 1.00757 1.00759 1.00741 1.00744 1.00475 1.0046 1.00513 1.00497 1.00436 1.0042 1.00475 1.0046 1.0042 1.00407 1.0046 1.00447 1.0046 1.00447 1.00497 1.00484 1.00885 1.00873 1.00864 1.00854 1.00899 1.00885 1.00875 1.00864 1.0092 1.00905 1.00899 1.00885 1.00905 1.00892 1.00885 1.00873 1.00957 1.00963 1.00937 1.00947 1.00937 1.00947 1.00919 1.00933 1.00924 1.00937 1.00902 1.00919 1.00948 1.00957 1.00924 1.00937 1.00276 1.00298 1.00217 1.00241 1.00217 1.00241 1.00165 1.00191 1.00185 1.00217 1.00131 1.00165 1.00247 1.00276 1.00185 1.00217 0.993496 0.994181 0.992309 0.99294 0.992309 0.99294 0.990905 0.991479 0.991941 0.992309 0.990499 0.990905 0.993122 0.993496 0.991941 0.992309 0.999593 0.999721 0.999511 0.999668 0.999464 0.999593 0.99935 0.999511 0.999565 0.999671 0.999464 0.999593 0.999671 0.999773 0.999593 0.999721 1.00124 1.00095 1.00153 1.00131 1.00099 1.00067 1.00124 1.00095 1.00067 1.00027 1.00095 1.00059 1.00095 1.00059 1.00131 1.00102 0.993947 0.994138 0.992958 0.993122 0.993894 0.993947 0.992966 0.992958 0.994696 0.994792 0.993894 0.993947 0.994792 0.99499 0.993947 0.994138 1.00307 1.00335 1.00247 1.00276 1.00374 1.00402 1.00307 1.00335 1.00402 1.00422 1.00335 1.00356 1.00335 1.00356 1.00276 1.00298 0.990652 0.989149 0.990217 0.988479 0.998868 0.998326 0.999029 0.998626 0.998326 0.997881 0.998626 0.998294 0.998626 0.998294 0.998884 0.998639 0.999029 0.998626 0.999177 0.998884 0.999798 0.999834 0.99947 0.999405 0.999794 0.999798 0.999549 0.99947 1.00002 1.00008 0.999794 0.999798 1.00008 1.00017 0.999798 0.999834 1.00479 1.00385 1.00522 1.00388 1.00445 1.00383 1.00479 1.00385 1.00383 1.00323 1.00385 1.00297 1.00385 1.00297 1.00388 1.00261 0.990652 0.990217 0.992154 0.991927 0.992154 0.991927 0.993475 0.993414 1.00742 1.00747 1.00771 1.00773 1.00717 1.00724 1.00742 1.00747 1.00724 1.0073 1.00747 1.0075 1.00747 1.0075 1.00773 1.00773 1.00808 1.00785 1.00808 1.00785 1.00785 1.00764 1.00785 1.00764 1.00785 1.00764 1.00785 1.00765 1.00808 1.00785 1.00808 1.00785 1.00522 1.00447 1.00508 1.00437 1.00508 1.00437 1.00486 1.00422 1.00585 1.00508 1.00557 1.00486 1.00601 1.00522 1.00585 1.00508 0.997666 0.997129 0.997292 0.996806 0.997129 0.996625 0.996806 0.996306 0.996806 0.996306 0.996434 0.995993 0.997292 0.996806 0.99686 0.996434 1.00897 1.00845 1.00952 1.0089 1.00833 1.00789 1.00897 1.00845 1.00789 1.0075 1.00845 1.008 1.00845 1.008 1.0089 1.00839 0.999936 0.99992 0.999944 0.999928 0.99992 0.999673 0.999928 0.999716 0.999928 0.999716 0.999947 0.999734 0.999944 0.999928 0.999952 0.999947 1.01011 1.0106 1.009 1.00931 1.009 1.00931 1.00787 1.00801 1.00998 1.00975 1.01033 1.01011 1.00968 1.00945 1.00998 1.00975 1.00945 1.00918 1.00975 1.00947 1.00975 1.00947 1.01011 1.00981 1.00651 1.00675 1.00624 1.00649 1.00624 1.00649 1.00603 1.00628 1.00595 1.00624 1.00573 1.00603 1.00622 1.00651 1.00595 1.00624 1.01378 1.01478 1.0136 1.01466 1.01297 1.01378 1.01274 1.0136 1.01307 1.01381 1.01297 1.01378 1.01381 1.01469 1.01378 1.01478 1.01296 1.01268 1.01379 1.01347 1.01229 1.01203 1.01296 1.01268 1.01203 1.01164 1.01268 1.01225 1.01268 1.01225 1.01347 1.01298 0.997074 0.996925 0.995613 0.995374 0.996925 0.996868 0.995374 0.995284 0.99518 0.99489 0.994641 0.994303 0.995676 0.995429 0.99518 0.99489 0.995429 0.995228 0.99489 0.99465 0.99489 0.99465 0.994303 0.994014 1.00558 1.00545 1.00593 1.00579 1.00545 1.00537 1.00579 1.0057 1.00579 1.0057 1.0061 1.006 1.00593 1.00579 1.00625 1.0061 0.99939 0.998604 0.998162 0.997427 1.00044 0.99939 0.99921 0.998162 1.00139 1.00037 1.00044 0.99939 1.00037 0.999571 0.99939 0.998604 0.999951 0.999933 1.00005 1.00003 0.999933 0.999908 1.00003 1.00002 1.00003 1.00002 0.999998 0.999992 1.00005 1.00003 1 0.999998 1.00707 1.00692 1.00684 1.00666 1.00684 1.00666 1.00668 1.0065 1.00697 1.00684 1.00683 1.00668 1.00717 1.00707 1.00697 1.00684 1.00952 1.01009 1.01007 1.01069 1.01009 1.01056 1.01069 1.01119 1.01069 1.01119 1.0114 1.01195 1.01007 1.01069 1.01072 1.0114 1.00888 1.00865 1.00894 1.0087 1.00865 1.00843 1.0087 1.00845 1.0087 1.00845 1.00874 1.00847 1.00894 1.0087 1.00902 1.00874 1.00797 1.00797 1.00821 1.00822 1.00821 1.00822 1.00845 1.00847 1.0082 1.00821 1.00843 1.00845 1.00797 1.00797 1.0082 1.00821 1.00898 1.00902 1.00874 1.00874 1.00874 1.00874 1.00851 1.00847 1.00873 1.00874 1.00854 1.00851 1.00892 1.00898 1.00873 1.00874 1.00763 1.00764 1.00749 1.00749 1.00764 1.00765 1.00749 1.0075 1.00749 1.0075 1.00738 1.00738 1.00749 1.00749 1.00738 1.00738 1.00153 1.00185 1.00098 1.00131 1.00112 1.00153 1.00054 1.00098 1.0018 1.00218 1.00112 1.00153 1.00218 1.00247 1.00153 1.00185 1.00157 1.00142 1.00182 1.0017 1.00134 1.00118 1.00157 1.00142 1.00118 1.00099 1.00142 1.00124 1.00142 1.00124 1.0017 1.00153 1.00388 1.00261 1.00336 1.00209 1.00336 1.00209 1.00258 1.00139 0.999124 0.999311 0.999093 0.999277 0.999158 0.999358 0.999124 0.999311 0.999358 0.99956 0.999311 0.999445 0.999311 0.999445 0.999277 0.999367 1.00579 1.00662 1.00607 1.00688 1.00607 1.00688 1.00626 1.00702 1.00536 1.00607 1.00557 1.00626 1.00506 1.00579 1.00536 1.00607 0.995683 0.996275 0.995644 0.996313 0.995022 0.995683 0.994885 0.995644 0.995228 0.995817 0.995022 0.995683 0.995817 0.996342 0.995683 0.996275 0.999863 0.999896 1.00001 1.00007 0.999853 0.999863 0.999982 1.00001 0.999698 0.999691 0.999853 0.999863 0.999691 0.999705 0.999863 0.999896 0.993265 0.992813 0.994208 0.99385 0.9938 0.993265 0.994628 0.994208 0.992963 0.992273 0.9938 0.993265 0.992273 0.991682 0.993265 0.992813 1.00488 1.0048 1.00458 1.00455 1.00458 1.00455 1.00429 1.0043 1.00462 1.00458 1.00427 1.00429 1.00497 1.00488 1.00462 1.00458 1.00755 1.00732 1.00757 1.00723 1.00732 1.00711 1.00723 1.00695 1.00723 1.00695 1.00713 1.00675 1.00757 1.00723 1.00758 1.00713 0.985163 0.986734 0.983168 0.984992 0.986734 0.988389 0.984992 0.987202 1.00908 1.00913 1.00926 1.00929 1.00888 1.00894 1.00908 1.00913 1.00894 1.00902 1.00913 1.00919 1.00913 1.00919 1.00929 1.00933 1.00202 1.00188 1.00169 1.00156 1.00169 1.00156 1.0014 1.00129 1.00178 1.00169 1.00148 1.0014 1.00213 1.00202 1.00178 1.00169 1.00427 1.00429 1.00389 1.00391 1.00429 1.0043 1.00391 1.00392 1.00391 1.00392 1.00354 1.00355 1.00389 1.00391 1.00351 1.00354 0.999124 0.999093 0.998909 0.998907 0.998909 0.998907 0.998673 0.998649 0.998943 0.998909 0.99872 0.998673 0.999158 0.999124 0.998943 0.998909 1.00829 1.00831 1.00855 1.00852 1.00831 1.00833 1.00852 1.00849 1.00852 1.00849 1.0087 1.00864 1.00855 1.00852 1.00878 1.0087 1.00581 1.00624 1.00618 1.00655 1.00534 1.00581 1.0058 1.00618 1.00495 1.00549 1.00534 1.00581 1.00549 1.00597 1.00581 1.00624 1.00003 0.999644 0.999643 0.999308 0.999644 0.999177 0.999308 0.998884 0.999308 0.998884 0.999078 0.998639 0.999643 0.999308 0.999405 0.999078 0.99975 0.999703 0.999842 0.99974 0.999831 0.99975 0.999903 0.999842 0.999685 0.999632 0.999831 0.99975 0.999873 0.999847 0.999773 0.999721 0.999965 0.999964 0.999873 0.999847 0.999964 0.99997 0.999847 0.999825 0.999847 0.999825 0.999721 0.999668 0.994802 0.994686 0.995644 0.995638 0.99385 0.993587 0.994802 0.994686 0.993587 0.993475 0.994686 0.994725 0.994686 0.994725 0.995638 0.995782 1.00141 1.00071 1.00092 1.00019 1.0018 1.00112 1.00141 1.00071 1.00112 1.00054 1.00071 1.00012 1.00071 1.00012 1.00019 0.999582 1.00808 1.00808 1.00834 1.00836 1.00808 1.00808 1.00832 1.00834 1.00695 1.00671 1.00675 1.00649 1.00711 1.00689 1.00695 1.00671 1.00689 1.00671 1.00671 1.00651 1.00671 1.00651 1.00649 1.00628 0.998712 0.998881 0.998567 0.998693 0.998558 0.998712 0.998453 0.998567 0.998677 0.998857 0.998558 0.998712 0.998857 0.999048 0.998712 0.998881 1.01229 1.01296 1.01248 1.01313 1.01296 1.01379 1.01313 1.01395 0.996908 0.996367 0.997019 0.996378 0.99686 0.996434 0.996908 0.996367 0.996434 0.995993 0.996367 0.995786 0.996367 0.995786 0.996378 0.995644 1.00435 1.00426 1.00473 1.00465 1.00447 1.00435 1.00484 1.00473 1.00407 1.00395 1.00447 1.00435 1.00395 1.00386 1.00435 1.00426 1.00947 1.00929 1.00947 1.00933 1.01095 1.01061 1.01144 1.01108 1.01144 1.01108 1.01203 1.01164 1.01169 1.01144 1.01229 1.01203 1.01119 1.01095 1.01169 1.01144 1.00247 1.00187 1.00196 1.00146 1.00196 1.00146 1.00157 1.00116 1.00234 1.00196 1.00189 1.00157 1.00289 1.00247 1.00234 1.00196 1.00487 1.00578 1.00465 1.00568 1.00403 1.00487 1.00372 1.00465 1.00424 1.005 1.00403 1.00487 1.005 1.00582 1.00487 1.00578 0.999999 0.999843 1.00002 0.999875 0.999978 0.999999 0.999986 1.00002 0.999969 0.999979 0.999978 0.999999 0.999979 0.999796 0.999999 0.999843 1.00829 1.00806 1.00831 1.00811 1.00806 1.00784 1.00811 1.00791 1.00811 1.00791 1.00815 1.00798 1.00831 1.00811 1.00833 1.00815 0.996323 0.996856 0.996527 0.996923 0.996856 0.997329 0.996923 0.997284 0.996923 0.997284 0.997046 0.997324 0.996527 0.996923 0.996739 0.997046 1.00644 1.00707 1.00655 1.00728 1.00655 1.00728 1.00665 1.0075 1.00584 1.00655 1.00582 1.00665 1.00582 1.00644 1.00584 1.00655 0.999952 0.999947 0.99996 0.999962 0.999947 0.999734 0.999962 0.999769 0.999962 0.999769 0.999979 0.999796 0.99996 0.999962 0.999969 0.999979 1.0032 1.0027 1.00311 1.00267 1.0027 1.00225 1.00267 1.00225 1.00267 1.00225 1.00264 1.00226 1.00311 1.00267 1.00304 1.00264 1.00806 1.00808 1.00784 1.00785 1.00784 1.00785 1.00765 1.00765 1.00783 1.00784 1.00765 1.00765 1.00804 1.00806 1.00783 1.00784 0.997675 0.997089 0.997812 0.997402 0.997545 0.996747 0.997675 0.997089 0.996747 0.99598 0.997089 0.996547 0.997089 0.996547 0.997402 0.997032 0.999959 0.999961 0.999972 0.99997 0.999972 0.99997 0.999989 0.999978 0.999823 0.999972 0.999854 0.999989 0.999787 0.999959 0.999823 0.999972 1.00085 1.00086 1.00106 1.00107 1.00066 1.00067 1.00085 1.00086 1.00067 1.00067 1.00086 1.00086 1.00086 1.00086 1.00107 1.00107 1.00639 1.00631 1.00672 1.0067 1.00649 1.00639 1.00673 1.00672 1.00624 1.00604 1.00649 1.00639 1.00604 1.00588 1.00639 1.00631 1.00462 1.00506 1.00478 1.00526 1.00506 1.00549 1.00526 1.00572 1.00526 1.00572 1.00549 1.00597 1.00478 1.00526 1.00495 1.00549 1.00709 1.00743 1.00754 1.0079 1.00754 1.0079 1.0079 1.00829 1.00723 1.00754 1.00758 1.0079 1.00681 1.00709 1.00723 1.00754 1.01101 1.01082 1.01064 1.01032 1.01064 1.01032 1.01034 1.00991 1.01092 1.01064 1.01071 1.01034 1.01114 1.01101 1.01092 1.01064 1.00822 1.00858 1.00854 1.00884 1.0079 1.00822 1.00829 1.00854 1.00743 1.00784 1.0079 1.00822 1.00784 1.00829 1.00822 1.00858 0.998927 0.998629 0.998907 0.998649 0.9991 0.998927 0.999093 0.998907 0.998952 0.998677 0.998927 0.998629 1.00748 1.00763 1.00751 1.00764 1.00744 1.00761 1.00748 1.00763 1.00761 1.0078 1.00763 1.00779 1.00763 1.00779 1.00764 1.00778 1.01072 1.01119 1.0109 1.01136 1.01051 1.0109 1.0106 1.01099 1.01033 1.01072 1.01051 1.0109 1.00616 1.00593 1.0058 1.0056 1.00644 1.00616 1.00603 1.0058 1.00681 1.00649 1.00644 1.00616 1.00649 1.00622 1.00616 1.00593 1.00522 1.00508 1.00479 1.0047 1.00508 1.00497 1.0047 1.00462 1.0047 1.00462 1.00432 1.00427 1.00479 1.0047 1.00436 1.00432 1.00142 1.00173 1.00145 1.00176 1.00137 1.00168 1.00142 1.00173 1.00168 1.00201 1.00173 1.00205 1.00173 1.00205 1.00176 1.00207 1.00272 1.00274 1.00234 1.00237 1.00234 1.00237 1.00199 1.00201 1.0023 1.00234 1.00194 1.00199 1.00268 1.00272 1.0023 1.00234 0.995646 0.99621 0.996048 0.996583 0.996048 0.996583 0.996547 0.997032 0.995427 0.996048 0.99598 0.996547 0.99499 0.995646 0.995427 0.996048 1.00942 1.0098 1.00983 1.01024 1.00983 1.01024 1.01018 1.01061 1.00948 1.00983 1.00981 1.01018 1.00909 1.00942 1.00948 1.00983 1.00