# vtk DataFile Version 3.0
#This file was generated by the deal.II library on 2020/12/12 at 20:42:18
ASCII
DATASET UNSTRUCTURED_GRID

POINTS 13312 double
3.66264 1.0501 0
3.2784 0.756848 0
3.96304 0.674254 0
3.52478 0.378817 0
4.04687 1.34335 0
3.66264 1.0501 0
4.40129 0.969691 0
3.96304 0.674254 0
3.69245 1.71701 0
3.36223 1.42595 0
4.04687 1.34335 0
3.66264 1.0501 0
3.36223 1.42595 0
3.03201 1.13488 0
3.66264 1.0501 0
3.2784 0.756848 0
-13.0654 9.56144 0
-12.1916 9.42079 0
-13.0561 10.4348 0
-12.3435 10.31 0
-13.9392 9.7021 0
-13.0654 9.56144 0
-13.7687 10.5597 0
-13.0561 10.4348 0
-14.1096 8.84451 0
-13.0746 8.68805 0
-13.9392 9.7021 0
-13.0654 9.56144 0
-13.0746 8.68805 0
-12.0397 8.53159 0
-13.0654 9.56144 0
-12.1916 9.42079 0
-11.3778 -4.58678 0
-12.1551 -4.95182 0
-11.1051 -5.40063 0
-11.8176 -5.76034 0
-10.6004 -4.22174 0
-11.3778 -4.58678 0
-10.3926 -5.04092 0
-11.1051 -5.40063 0
-10.8083 -3.40256 0
-11.6505 -3.77293 0
-10.6004 -4.22174 0
-11.3778 -4.58678 0
-11.6505 -3.77293 0
-12.4927 -4.1433 0
-11.3778 -4.58678 0
-12.1551 -4.95182 0
-6.11045 -8.77924 0
-5.85746 -7.99763 0
-6.76256 -8.2998 0
-6.5839 -7.61018 0
-6.36345 -9.56085 0
-6.11045 -8.77924 0
-6.94122 -8.98943 0
-6.76256 -8.2998 0
-5.78567 -10.1323 0
-5.45834 -9.25867 0
-6.36345 -9.56085 0
-6.11045 -8.77924 0
-5.45834 -9.25867 0
-5.13101 -8.38508 0
-6.11045 -8.77924 0
-5.85746 -7.99763 0
0.479606 -4.79078 0
0.847319 -4.61225 0
0.312468 -4.42704 0
0.583417 -4.23827 0
0.111892 -4.96932 0
0.479606 -4.79078 0
0.0415191 -4.6158 0
0.312468 -4.42704 0
0.182266 -5.32283 0
0.646744 -5.15453 0
0.111892 -4.96932 0
0.479606 -4.79078 0
0.646744 -5.15453 0
1.11122 -4.98623 0
0.479606 -4.79078 0
0.847319 -4.61225 0
-9.02089 9.96417 0
-8.08309 10.3193 0
-9.37119 10.9985 0
-8.26452 11.2925 0
-9.37119 10.9985 0
-8.26452 11.2925 0
-9.72149 12.0329 0
-8.44595 12.2656 0
-10.4779 10.7046 0
-9.37119 10.9985 0
-10.997 11.8001 0
-9.72149 12.0329 0
-9.95869 9.60903 0
-9.02089 9.96417 0
-10.4779 10.7046 0
-9.37119 10.9985 0
-3.16528 1.30887 0
-3.55093 1.1447 0
-3.01009 0.928909 0
-3.37208 0.750345 0
-2.77962 1.47304 0
-3.16528 1.30887 0
-2.64811 1.10747 0
-3.01009 0.928909 0
-2.91113 1.83861 0
-3.32046 1.68883 0
-2.77962 1.47304 0
-3.16528 1.30887 0
-3.32046 1.68883 0
-3.72979 1.53905 0
-3.16528 1.30887 0
-3.55093 1.1447 0
3.21716 -3.32283 0
3.73445 -3.37466 0
3.19651 -2.79341 0
3.56777 -2.64754 0
2.69986 -3.27099 0
3.21716 -3.32283 0
2.82525 -2.93927 0
3.19651 -2.79341 0
2.57447 -3.6027 0
3.2378 -3.85224 0
2.69986 -3.27099 0
3.21716 -3.32283 0
3.2378 -3.85224 0
3.90113 -4.10178 0
3.21716 -3.32283 0
3.73445 -3.37466 0
0.141243 6.65798 0
-0.190973 6.101 0
0.689545 6.32089 0
0.330308 5.81124 0
0.473459 7.21496 0
0.141243 6.65798 0
1.04878 6.83053 0
0.689545 6.32089 0
-0.101865 7.5994 0
-0.407059 6.99508 0
0.473459 7.21496 0
0.141243 6.65798 0
-0.407059 6.99508 0
-0.712253 6.39077 0
0.141243 6.65798 0
-0.190973 6.101 0
-1.90285 0.389536 0
-2.14785 0.225312 0
-1.75399 0.147999 0
-1.96642 -0.0213065 0
-1.65784 0.553759 0
-1.90285 0.389536 0
-1.54156 0.317305 0
-1.75399 0.147999 0
-1.77412 0.790214 0
-2.0517 0.631072 0
-1.65784 0.553759 0
-1.90285 0.389536 0
-2.0517 0.631072 0
-2.32929 0.47193 0
-1.90285 0.389536 0
-2.14785 0.225312 0
-14.3694 13.8502 0
-14.5427 12.6333 0
-13.1589 13.7159 0
-13.4048 12.5429 0
-14.196 15.0671 0
-14.3694 13.8502 0
-12.9131 14.8889 0
-13.1589 13.7159 0
-15.479 15.2454 0
-15.5799 13.9846 0
-14.196 15.0671 0
-14.3694 13.8502 0
-15.5799 13.9846 0
-15.6807 12.7237 0
-14.3694 13.8502 0
-14.5427 12.6333 0
4.26799 2.57758 0
3.98022 2.1473 0
4.78317 2.22107 0
4.41502 1.78221 0
3.98022 2.1473 0
3.69245 1.71701 0
4.41502 1.78221 0
4.04687 1.34335 0
4.41502 1.78221 0
4.04687 1.34335 0
4.84982 1.41712 0
4.40129 0.969691 0
4.78317 2.22107 0
4.41502 1.78221 0
5.29835 1.86456 0
4.84982 1.41712 0
0.46567 5.04992 0
0.168645 4.63193 0
0.876105 4.74424 0
0.557127 4.36392 0
0.762696 5.4679 0
0.46567 5.04992 0
1.19508 5.12456 0
0.876105 4.74424 0
0.330308 5.81124 0
0.055235 5.35559 0
0.762696 5.4679 0
0.46567 5.04992 0
0.055235 5.35559 0
-0.219838 4.89994 0
0.46567 5.04992 0
0.168645 4.63193 0
-8.1571 -9.31088 0
-8.35977 -8.43209 0
-9.11259 -9.60724 0
-9.18316 -8.74457 0
-8.35977 -8.43209 0
-8.56243 -7.55331 0
-9.18316 -8.74457 0
-9.25373 -7.8819 0
-9.18316 -8.74457 0
-9.25373 -7.8819 0
-10.0066 -9.05704 0
-9.94504 -8.21048 0
-9.11259 -9.60724 0
-9.18316 -8.74457 0
-10.0681 -9.9036 0
-10.0066 -9.05704 0
-16.3679 -22.6494 0
-16.4198 -24.0542 0
-14.9526 -22.6347 0
-14.9617 -24.047 0
-16.3159 -21.2446 0
-16.3679 -22.6494 0
-14.9435 -21.2224 0
-14.9526 -22.6347 0
-17.6883 -21.2669 0
-17.7831 -22.6642 0
-16.3159 -21.2446 0
-16.3679 -22.6494 0
-17.7831 -22.6642 0
-17.8779 -24.0615 0
-16.3679 -22.6494 0
-16.4198 -24.0542 0
1.95819 19.6924 0
2.07127 20.8663 0
0.815259 19.7215 0
0.948874 20.8494 0
1.84511 18.5185 0
1.95819 19.6924 0
0.681645 18.5936 0
0.815259 19.7215 0
3.00857 18.4434 0
3.10112 19.6633 0
1.84511 18.5185 0
1.95819 19.6924 0
3.10112 19.6633 0
3.19367 20.8831 0
1.95819 19.6924 0
2.07127 20.8663 0
-4.30769 -0.345147 0
-4.04327 -0.739131 0
-3.9073 -0.0743334 0
-3.66056 -0.457763 0
-4.57211 0.0488366 0
-4.30769 -0.345147 0
-4.15403 0.309097 0
-3.9073 -0.0743334 0
-4.99018 -0.211423 0
-4.70808 -0.615961 0
-4.57211 0.0488366 0
-4.30769 -0.345147 0
-4.70808 -0.615961 0
-4.42598 -1.0205 0
-4.30769 -0.345147 0
-4.04327 -0.739131 0
8.25251 -11.3587 0
9.00931 -12.2209 0
9.12099 -10.6468 0
9.91964 -11.4328 0
7.49571 -10.4965 0
8.25251 -11.3587 0
8.32233 -9.86077 0
9.12099 -10.6468 0
6.66908 -11.1322 0
7.38403 -12.0706 0
7.49571 -10.4965 0
8.25251 -11.3587 0
7.38403 -12.0706 0
8.09899 -13.009 0
8.25251 -11.3587 0
9.00931 -12.2209 0
8.09899 -13.009 0
9.00712 -14.1696 0
9.00931 -12.2209 0
9.9229 -13.2142 0
9.00712 -14.1696 0
9.91526 -15.3302 0
9.9229 -13.2142 0
10.8365 -14.2075 0
9.9229 -13.2142 0
10.8365 -14.2075 0
10.8387 -12.2587 0
11.7577 -13.0847 0
9.00931 -12.2209 0
9.9229 -13.2142 0
9.91964 -11.4328 0
10.8387 -12.2587 0
2.86611 10.5174 0
2.32084 9.73096 0
3.56597 9.88875 0
2.97321 9.21856 0
3.41138 11.3039 0
2.86611 10.5174 0
4.15872 10.5589 0
3.56597 9.88875 0
2.66404 12.0489 0
2.16626 11.1461 0
3.41138 11.3039 0
2.86611 10.5174 0
2.16626 11.1461 0
1.66847 10.2434 0
2.86611 10.5174 0
2.32084 9.73096 0
-5.14557 -0.95625 0
-4.83929 -1.43107 0
-4.70808 -0.615961 0
-4.42598 -1.0205 0
-5.45185 -0.481431 0
-5.14557 -0.95625 0
-4.99018 -0.211423 0
-4.70808 -0.615961 0
-5.91352 -0.751439 0
-5.58305 -1.29654 0
-5.45185 -0.481431 0
-5.14557 -0.95625 0
-5.58305 -1.29654 0
-5.25259 -1.84164 0
-5.14557 -0.95625 0
-4.83929 -1.43107 0
-7.64385 -1.68765 0
-7.25625 -2.21434 0
-7.14765 -1.18853 0
-6.77752 -1.78208 0
-8.14005 -2.18676 0
-7.73499 -2.64661 0
-7.64385 -1.68765 0
-7.25625 -2.21434 0
-7.73499 -2.64661 0
-7.32994 -3.10646 0
-7.25625 -2.21434 0
-6.86866 -2.74104 0
-7.25625 -2.21434 0
-6.86866 -2.74104 0
-6.77752 -1.78208 0
-6.40738 -2.37562 0
11.3046 -9.674 0
10.6121 -10.5534 0
12.5792 -10.33 0
11.709 -11.2944 0
10.6121 -10.5534 0
9.91964 -11.4328 0
11.709 -11.2944 0
10.8387 -12.2587 0
11.709 -11.2944 0
10.8387 -12.2587 0
12.8058 -12.0354 0
11.7577 -13.0847 0
12.5792 -10.33 0
11.709 -11.2944 0
13.8539 -10.986 0
12.8058 -12.0354 0
3.27912 2.83214 0
3.77356 2.70486 0
3.25285 3.34742 0
3.89462 3.33961 0
3.77356 2.70486 0
4.26799 2.57758 0
3.89462 3.33961 0
4.53639 3.3318 0
3.89462 3.33961 0
4.53639 3.3318 0
4.01568 3.97435 0
4.80479 4.08601 0
3.25285 3.34742 0
3.89462 3.33961 0
3.22658 3.86269 0
4.01568 3.97435 0
23.8697 6.82251 0
25.4364 6.27725 0
24.8181 8.09905 0
26.5955 7.33932 0
22.3031 7.36777 0
23.8697 6.82251 0
23.0407 8.85878 0
24.8181 8.09905 0
21.5654 5.87677 0
22.9213 5.54597 0
22.3031 7.36777 0
23.8697 6.82251 0
22.9213 5.54597 0
24.2772 5.21518 0
23.8697 6.82251 0
25.4364 6.27725 0
-1.94879 -3.15135 0
-1.79134 -2.80889 0
-2.33369 -2.99589 0
-2.14625 -2.64836 0
-1.56388 -3.30681 0
-1.43643 -2.96941 0
-1.94879 -3.15135 0
-1.79134 -2.80889 0
-1.43643 -2.96941 0
-1.30898 -2.632 0
-1.79134 -2.80889 0
-1.63389 -2.46642 0
-1.79134 -2.80889 0
-1.63389 -2.46642 0
-2.14625 -2.64836 0
-1.9588 -2.30083 0
19.559 -1.58341 0
18.2962 -1.88333 0
19.6642 -2.77678 0
18.0256 -3.07537 0
20.8219 -1.28348 0
19.559 -1.58341 0
21.3028 -2.47818 0
19.6642 -2.77678 0
20.341 -0.088788 0
19.4538 -0.39004 0
20.8219 -1.28348 0
19.559 -1.58341 0
19.4538 -0.39004 0
18.5667 -0.691292 0
19.559 -1.58341 0
18.2962 -1.88333 0
3.40481 -0.644817 0
3.02803 -0.951067 0
3.84419 -0.767712 0
3.33288 -1.22913 0
2.96543 -0.521923 0
2.72319 -0.673002 0
3.40481 -0.644817 0
3.02803 -0.951067 0
2.72319 -0.673002 0
2.48095 -0.824082 0
3.02803 -0.951067 0
2.65126 -1.25732 0
3.02803 -0.951067 0
2.65126 -1.25732 0
3.33288 -1.22913 0
2.82157 -1.69055 0
-1.09469 -3.07672 0
-0.752951 -3.18403 0
-0.924065 -2.76499 0
-0.539146 -2.89798 0
-1.43643 -2.96941 0
-1.09469 -3.07672 0
-1.30898 -2.632 0
-0.924065 -2.76499 0
-1.56388 -3.30681 0
-1.26532 -3.38844 0
-1.43643 -2.96941 0
-1.09469 -3.07672 0
-1.26532 -3.38844 0
-0.966756 -3.47007 0
-1.09469 -3.07672 0
-0.752951 -3.18403 0
6.46794 6.56736 0
5.92428 7.27021 0
5.78392 6.01569 0
5.24998 6.70054 0
7.01159 5.86451 0
6.46794 6.56736 0
6.31786 5.33083 0
5.78392 6.01569 0
7.70531 6.39819 0
7.15195 7.11904 0
7.01159 5.86451 0
6.46794 6.56736 0
7.15195 7.11904 0
6.59859 7.83988 0
6.46794 6.56736 0
5.92428 7.27021 0
18.3015 -8.42645 0
16.7898 -8.85256 0
18.7694 -9.94245 0
17.2084 -10.318 0
19.8132 -8.00034 0
18.3015 -8.42645 0
20.3304 -9.56695 0
18.7694 -9.94245 0
19.2961 -6.43372 0
17.8336 -6.91045 0
19.8132 -8.00034 0
18.3015 -8.42645 0
17.8336 -6.91045 0
16.3711 -7.38718 0
18.3015 -8.42645 0
16.7898 -8.85256 0
7.51395 15.0241 0
7.04739 14.2267 0
8.53025 14.3092 0
7.93099 13.5023 0
7.04739 14.2267 0
6.58084 13.4293 0
7.93099 13.5023 0
7.33174 12.6954 0
7.93099 13.5023 0
7.33174 12.6954 0
8.81459 12.7779 0
8.08264 11.9614 0
8.53025 14.3092 0
7.93099 13.5023 0
9.54654 13.5944 0
8.81459 12.7779 0
42.7917 -22.6083 0
42.6141 -20.1099 0
40.4206 -22.6978 0
40.1808 -20.2278 0
[...]
POINT_DATA 13312
SCALARS solution_0 double 1
LOOKUP_TABLE default
0.965887 0.829323 0.742169 0.540806 1.0266 0.965887 0.901994 0.742169 1.04883 1.05175 1.0266 0.965887 1.05175 1.01909 0.965887 0.829323 0.999328 0.999265 0.999625 0.9996 0.999395 0.999328 0.999647 0.999625 0.999148 0.999021 0.999395 0.999328 0.999021 0.998887 0.999328 0.999265 0.997093 0.997587 0.997488 0.9979 0.996494 0.997093 0.996997 0.997488 0.996084 0.996778 0.996494 0.997093 0.996778 0.997345 0.997093 0.997587 1.00107 1.00056 1.00023 0.999661 1.00144 1.00107 1.00068 1.00023 1.00218 1.00194 1.00144 1.00107 1.00194 1.00158 1.00107 1.00056 1.01832 1.02106 1.01887 1.02166 1.01575 1.01832 1.01638 1.01887 1.01514 1.01775 1.01575 1.01832 1.01775 1.02033 1.01832 1.02106 0.999818 1.00028 1.00024 1.0007 1.00024 1.0007 1.00056 1.00102 0.999914 1.00024 1.00023 1.00056 0.999466 0.999818 0.999914 1.00024 0.96911 0.971359 0.963393 0.96683 0.96757 0.96911 0.96048 0.963393 0.973565 0.974211 0.96757 0.96911 0.974211 0.975606 0.96911 0.971359 1.03199 1.02886 1.03524 1.03274 1.0344 1.03199 1.03688 1.03524 1.03191 1.02858 1.0344 1.03199 1.02858 1.02568 1.03199 1.02886 1.01034 1.00986 1.01252 1.0123 1.01054 1.01034 1.01249 1.01252 1.0088 1.00844 1.01054 1.01034 1.00844 1.00777 1.01034 1.00986 0.926583 0.935129 0.914618 0.926591 0.919146 0.926583 0.902639 0.914618 0.933728 0.938023 0.919146 0.926583 0.938023 0.944036 0.926583 0.935129 1.00031 1.00008 1.00042 1.00015 1.00052 1.00031 1.00067 1.00042 1.00043 1.00026 1.00052 1.00031 1.00026 1.00007 1.00031 1.00008 1.02731 1.03527 1.03181 1.04481 1.03527 1.04883 1.04481 1.0266 1.04481 1.0266 1.01899 0.901994 1.03181 1.04481 1.04217 1.01899 1.01476 1.01427 1.01798 1.01789 1.01483 1.01476 1.01769 1.01798 1.0123 1.01195 1.01483 1.01476 1.01195 1.01119 1.01476 1.01427 1.00035 0.999667 1.00021 0.999684 0.999667 0.998902 0.999684 0.999063 0.999684 0.999063 0.99971 0.999209 1.00021 0.999684 1.00013 0.99971 1.00094 1.00096 1.00114 1.00118 1.00093 1.00094 1.0011 1.00114 1.00058 1.00057 1.00093 1.00094 1.00057 1.00059 1.00094 1.00096 1.00579 1.00562 1.00539 1.00527 1.00598 1.00579 1.00553 1.00539 1.0064 1.00615 1.00598 1.00579 1.00615 1.00595 1.00579 1.00562 0.975685 0.974722 0.971553 0.969816 0.97732 0.975685 0.973975 0.971553 0.980259 0.979163 0.97732 0.975685 0.979163 0.978689 0.975685 0.974722 1.01121 1.01066 1.01154 1.011 1.01187 1.01121 1.0122 1.01154 1.01142 1.01078 1.01187 1.01121 1.01078 1.01024 1.01121 1.01066 1.01024 1.00968 1.01066 1.01013 1.00968 1.00922 1.01013 1.00968 1.01013 1.00968 1.0105 1.01008 1.01066 1.01013 1.011 1.0105 1.01001 1.01032 1.01105 1.01141 1.0097 1.01001 1.0107 1.01105 1.00875 1.00902 1.0097 1.01001 1.00902 1.00927 1.01001 1.01032 0.982397 0.982514 0.979163 0.978689 0.983003 0.982397 0.980259 0.979163 0.985328 0.985096 0.983003 0.982397 0.985096 0.985557 0.982397 0.982514 0.991138 0.991145 0.989549 0.9895 0.992496 0.992505 0.991138 0.991145 0.992505 0.992703 0.991145 0.991434 0.991145 0.991434 0.9895 0.989897 1.01154 1.01131 1.01099 1.01079 1.01131 1.011 1.01079 1.0105 1.01079 1.0105 1.01036 1.01008 1.01099 1.01079 1.01054 1.01036 1.03341 1.03056 1.03012 1.02752 1.03056 1.02731 1.02752 1.02401 1.02752 1.02401 1.02445 1.02217 1.03012 1.02752 1.02694 1.02445 1.00796 1.00862 1.00975 1.00774 1.00966 1.00796 1.01029 1.00975 1.00686 1.00994 1.00966 1.00796 1.00994 1.01322 1.00796 1.00862 0.995933 0.994092 0.991841 0.989213 1.00068 0.999737 0.995933 0.994092 0.999737 0.998334 0.994092 0.991456 0.994092 0.991456 0.989213 0.9855 0.922598 0.947514 1.00991 1.02359 0.899612 0.922598 0.990144 1.00991 0.826218 0.83758 0.899612 0.922598 0.83758 0.856918 0.922598 0.947514 0.801491 0.978831 0.869615 1.02927 0.701853 0.844269 0.801491 0.978831 0.844269 0.959977 0.978831 1.05998 0.978831 1.05998 1.02927 1.05716 1.00512 1.01065 1.00627 1.01418 0.999737 1.00512 0.998334 1.00627 1.00068 1.00439 0.999737 1.00512 1.00439 1.00825 1.00512 1.01065 1.01529 1.01472 1.01659 1.01586 1.01568 1.01529 1.01718 1.01659 1.01455 1.01427 1.01568 1.01529 1.01427 1.01379 1.01529 1.01472 1.01054 1.01064 1.01007 1.01015 1.01004 1.01054 1.01007 1.01007 1.0089 1.00959 1.01004 1.01054 1.00959 1.0108 1.01054 1.01064 1.0088 1.00907 1.00924 1.00955 1.00907 1.00938 1.00955 1.00991 1.00955 1.00991 1.00999 1.01039 1.00924 1.00955 1.00964 1.00999 1.00763 1.00784 1.00766 1.00787 1.00748 1.00763 1.00751 1.00766 1.00745 1.00761 1.00748 1.00763 1.00761 1.00782 1.00763 1.00784 0.875282 1.00537 0.660736 0.748602 1.00537 1.09157 0.748602 0.715822 0.748602 0.715822 0 0 0.660736 0.748602 0 0 1.04962 1.0352 1.05914 1.04367 1.06297 1.04962 1.073 1.05914 1.05526 1.04313 1.06297 1.04962 1.04313 1.02988 1.04962 1.0352 0.997714 0.995933 0.994175 0.991841 0.999009 0.997714 0.995921 0.994175 1.00257 1.00181 0.999009 0.997714 1.00181 1.00068 0.997714 0.995933 0.993574 0.995453 0.993064 0.995005 0.995453 0.996987 0.995005 0.996539 0.995005 0.996539 0.994832 0.996383 0.993064 0.995005 0.992891 0.994832 0.987498 0.987687 0.985759 0.985328 0.987578 0.987498 0.986459 0.985759 0.988595 0.988964 0.987578 0.987498 0.988964 0.989549 0.987498 0.987687 0.64335 0.72841 0.83887 0.963331 0 0 0.64335 0.72841 0 0 0.72841 0.67302 0.72841 0.67302 0.963331 1.02018 0.976073 0.970398 0.964999 0.95971 0.983788 0.97825 0.976073 0.970398 0.97825 0.975273 0.970398 0.96786 0.970398 0.96786 0.95971 0.958203 1.00012 0.999692 0.999881 0.999421 1.00044 1.00012 1.00024 0.999881 1.00068 1.00045 1.00044 1.00012 1.00045 1.00013 1.00012 0.999692 1.02042 1.0293 1.02872 1.006 1.01347 1.02042 1.02346 1.02872 1.01234 1.01184 1.01347 1.02042 1.01184 1.01713 1.02042 1.0293 0.99753 0.997621 0.997108 0.997193 0.99789 0.997983 0.99753 0.997621 0.997983 0.998117 0.997621 0.997763 0.997621 0.997763 0.997193 0.997345 1.02806 1.02488 1.02889 1.02579 1.03136 1.02806 1.03196 1.02889 1.03042 1.02695 1.03136 1.02806 1.02695 1.02375 1.02806 1.02488 1.00417 1.00368 1.00417 1.00364 1.00468 1.00417 1.00472 1.00417 1.00462 1.00415 1.00468 1.00417 1.00415 1.0037 1.00417 1.00368 1.01687 1.01706 1.01846 1.01943 1.01479 1.01835 1.01687 1.01706 1.01835 1.03024 1.01706 1.02182 1.01706 1.02182 1.01943 1.02044 1.0064 1.00598 1.00663 1.00618 1.00598 1.00553 1.00618 1.00569 1.00618 1.00569 1.0064 1.00586 1.00663 1.00618 1.0069 1.0064 1.01487 1.01658 1.01587 1.01791 1.01303 1.01487 1.01372 1.01587 1.01239 1.01399 1.01303 1.01487 1.01399 1.01545 1.01487 1.01658 1.00652 1.00496 1.00578 1.00413 1.00844 1.00652 1.00777 1.00578 1.0088 1.00695 1.00844 1.00652 1.00695 1.00545 1.00652 1.00496 1.00296 1.00428 1.00169 1.00259 1.00169 1.00259 1.00026 1.00079 1.00104 1.00169 0.99986 1.00026 1.00203 1.00296 1.00104 1.00169 1.01054 1.01249 1.01068 1.01237 1.01068 1.01237 1.01064 1.01212 1.00915 1.01068 1.00928 1.01064 1.0088 1.01054 1.00915 1.01068 0.986659 0.988715 0.98595 0.987744 0.984778 0.986659 0.984238 0.98595 0.985557 0.987511 0.984778 0.986659 0.987511 0.98965 0.986659 0.988715 1.01813 1.02162 1.01329 1.01098 1.02162 1.02415 1.01098 1.00869 1.01098 1.00869 1.00798 1.00884 1.01329 1.01098 1.00774 1.00798 1.00274 1.00222 1.0025 1.00196 1.00331 1.00274 1.0031 1.0025 1.00347 1.00292 1.00331 1.00274 1.00292 1.00242 1.00274 1.00222 1.01244 1.01315 1.01299 1.01379 1.01185 1.01244 1.01232 1.01299 1.01129 1.01179 1.01185 1.01244 1.01179 1.01238 1.01244 1.01315 1.00707 1.00976 1.00863 1.01208 1.00502 1.00629 1.00707 1.00976 1.00629 1.00827 1.00976 1.01345 1.00976 1.01345 1.01208 1.01642 1.02182 1.03491 1.02044 1.02665 1.03024 1.03144 1.02182 1.03491 1.03144 0.957454 1.03491 1.02791 1.03491 1.02791 1.02665 1.0413 1.00891 1.00929 1.00886 1.00919 1.00886 1.00919 1.00879 1.00909 1.00851 1.00886 1.0085 1.00879 1.0085 1.00891 1.00851 1.00886 0.913303 0.925001 0.911434 0.926459 0.925001 0.935121 0.926459 0.938356 0.926459 0.938356 0.931311 0.94357 0.911434 0.926459 0.914532 0.931311 1.00078 0.998103 1.00189 0.999649 1.00189 0.999649 1.00259 1.00079 1.00412 1.00189 1.00428 1.00259 1.00387 1.00078 1.00412 1.00189 0.991138 0.989549 0.991639 0.990496 0.991639 0.990496 0.992212 0.991419 0.992681 0.991639 0.992969 0.992212 0.992496 0.991138 0.992681 0.991639 0.99328 0.992849 0.99148 0.990805 0.992849 0.992508 0.990805 0.990151 0.990805 0.990151 0.988715 0.987744 0.99148 0.990805 0.98965 0.988715 1.01109 1.01077 1.01157 1.01123 1.01133 1.01109 1.0118 1.01157 1.01094 1.01068 1.01133 1.01109 1.01068 1.01039 1.01109 1.01077 1.00932 1.01052 1.00927 1.01032 1.00928 1.01064 1.00932 1.01052 1.01064 1.01212 1.01052 1.01178 1.01052 1.01178 1.01032 1.01141 0.998136 0.998028 0.997882 0.997606 0.997882 0.997606 0.997624 0.997106 0.99817 0.997882 0.998115 0.997624 0.998266 0.998136 0.99817 0.997882 0.994271 0.994951 0.993133 0.993892 0.993795 0.994271 0.992703 0.993133 0.994708 0.995194 0.993795 0.994271 0.995194 0.995805 0.994271 0.994951 1.00099 1.00121 1.00103 1.00125 1.00093 1.00115 1.00099 1.00121 1.00115 1.00144 1.00121 1.0015 1.00121 1.0015 1.00125 1.00153 1.00837 1.00933 1.00863 1.00873 1.00933 1.00938 1.00873 1.00923 1.00873 1.00923 1.00846 1.00834 1.00863 1.00873 1.00998 1.00846 0.928603 0.935615 1.0254 1.02585 0.921521 0.928603 1.02415 1.0254 0.856524 0.858517 0.921521 0.928603 0.858517 0.860442 0.928603 0.935615 1.00128 1.00125 1.00156 1.00153 1.00129 1.00128 1.00158 1.00156 1.00107 1.00105 1.00129 1.00128 1.00105 1.00103 1.00128 1.00125 1.00833 1.00821 1.00858 1.00841 1.0081 1.00803 1.00833 1.00821 1.00803 1.00797 1.00821 1.00811 1.00821 1.00811 1.00841 1.00825 1.00586 1.00549 1.00577 1.0054 1.006 1.00563 1.00586 1.00549 1.00563 1.00523 1.00549 1.0051 1.00549 1.0051 1.0054 1.00501 1.00058 1.00093 1.00057 1.00085 1.00093 1.0011 1.00085 1.00103 1.00085 1.00103 1.00078 1.00096 1.00057 1.00085 1.0006 1.00078 0.998588 0.998245 0.998544 0.998215 0.998245 0.997853 0.998215 0.997846 0.998215 0.997846 0.998241 0.997884 0.998544 0.998215 0.998551 0.998241 1.01238 1.01301 1.01315 1.01394 1.01301 1.01374 1.01394 1.01488 1.01394 1.01488 1.01472 1.01586 1.01315 1.01394 1.01379 1.01472 1.00393 1.00331 1.00373 1.0031 1.0046 1.00393 1.00443 1.00373 1.00471 1.00407 1.0046 1.00393 1.00407 1.00347 1.00393 1.00331 1.06657 1.04956 1.07587 1.05758 1.08045 1.06657 1.09132 1.07587 1.073 1.05914 1.08045 1.06657 1.05914 1.04367 1.06657 1.04956 1.0069 1.0064 1.0072 1.00669 1.0064 1.00586 1.00669 1.0061 1.00669 1.0061 1.00701 1.00637 1.0072 1.00669 1.00755 1.00701 1.01701 1.01731 1.01878 1.01913 1.01634 1.01701 1.01796 1.01878 1.01505 1.01561 1.01634 1.01701 1.01561 1.01589 1.01701 1.01731 0.998628 0.999661 0.998446 0.999538 0.998446 0.999538 0.998272 0.999422 0.997277 0.998446 0.997047 0.998272 0.997514 0.998628 0.997277 0.998446 0.990291 0.98934 0.987184 0.986397 0.98934 0.988963 0.986397 0.986254 0.986397 0.986254 0.982809 0.983035 0.987184 0.986397 0.983284 0.982809 1.01516 1.01479 1.01647 1.01687 1.01647 1.01687 1.01704 1.01846 1.01549 1.01647 1.01578 1.01704 1.01507 1.01516 1.01549 1.01647 1.00685 1.0067 1.00712 1.00694 1.00708 1.00685 1.0074 1.00712 1.00671 1.00653 1.00708 1.00685 1.00653 1.00642 1.00685 1.0067 1.00553 1.00508 1.00569 1.00519 1.00508 1.00462 1.00519 1.00468 1.00519 1.00468 1.0053 1.00472 1.00569 1.00519 1.00586 1.0053 0.949016 0.952669 0.938023 0.944036 0.947299 0.949016 0.933728 0.938023 0.958203 0.958395 0.947299 0.949016 0.958395 0.96048 0.949016 0.952669 1.00218 1.00144 1.00171 1.00113 1.00144 1.00068 1.00113 1.00049 1.00113 1.00049 1.00089 1.00035 1.00171 1.00113 1.00137 1.00089 1.00929 1.01076 1.00845 1.00823 1.00869 1.00929 1.00884 1.00845 1.02415 1.0254 1.00869 1.00929 1.0254 1.02585 1.00929 1.01076 1.00206 1.0016 1.00231 1.00188 1.00231 1.00188 1.00249 1.00208 1.00281 1.00231 1.00295 1.00249 1.00262 1.00206 1.00281 1.00231 0.99991 0.999896 0.999869 0.99983 0.999869 0.99983 0.999676 0.999725 0.999912 0.999869 0.999672 0.999676 0.999932 0.99991 0.999912 0.999869 0.98934 0.992043 0.988963 0.991498 0.990291 0.993097 0.98934 0.992043 0.993097 0.995308 0.992043 0.994215 0.992043 0.994215 0.991498 0.993574 1.0346 1.05094 1.03274 1.04266 1.0413 1.02585 1.0346 1.05094 1.02585 0.869615 1.05094 1.02927 1.05094 1.02927 1.04266 1.05716 1.00397 1.00431 1.00333 1.00366 1.00465 1.00502 1.00397 1.00431 1.00502 1.00532 1.00431 1.00457 1.00431 1.00457 1.00366 1.0039 0.999204 0.999245 0.999358 0.999489 0.999245 0.999331 0.999489 0.999504 0.999489 0.999504 0.999703 0.999676 0.999358 0.999489 0.999541 0.999703 0.913967 1.01846 0.83987 0.996156 0.967764 1.02621 0.913967 1.01846 1.02621 1.01396 1.01846 1.01893 1.01846 1.01893 0.996156 1.02301 1.00887 1.00875 1.00961 1.0097 1.00961 1.0097 1.01038 1.0107 1.00948 1.00961 1.01007 1.01038 1.00891 1.00887 1.00948 1.00961 0.93319 0.83887 1.02067 0.963331 1.02067 0.963331 1.10822 1.02018 1.02951 1.02067 1.08881 1.10822 0.972812 0.93319 1.02951 1.02067 1.00408 1.00361 1.0041 1.00371 1.00361 1.00317 1.00371 1.00334 1.00371 1.00334 1.00378 1.00347 1.0041 1.00371 1.00412 1.00378 0.944283 0.951741 1.02595 1.02589 0.935615 0.944283 1.02585 1.02595 0.860442 0.862514 0.935615 0.944283 0.862514 0.864923 0.944283 0.951741 0.921785 0.815175 0.801839 0.755825 0.801839 0.755825 0.732427 0.801908 0.917425 0.801839 0.776108 0.732427 1.006 0.921785 0.917425 0.801839 0.99743 0.997028 0.997584 0.99713 0.997028 0.996551 0.99713 0.996594 0.99713 0.996594 0.997342 0.996705 0.997584 0.99713 0.997874 0.997342 1.00532 1.00565 1.00457 1.00489 1.00565 1.00588 1.00489 1.00512 1.00489 1.00512 1.00421 1.00443 1.00457 1.00489 1.0039 1.00421 0.975606 0.979568 0.977312 0.980578 0.979568 0.983035 0.980578 0.983543 0.980578 0.983543 0.981903 0.984409 0.977312 0.980578 0.979235 0.981903 1.00751 1.00738 1.00758 1.00745 1.00771 1.00751 1.00776 1.00758 1.00764 1.00742 1.00771 1.00751 1.00742 1.00727 1.00751 1.00738 0.994215 0.996185 0.993574 0.995453 0.995308 0.997302 0.994215 0.996185 0.997302 0.998862 0.996185 0.997763 0.996185 0.997763 0.995453 0.996987 0.990144 1.00991 1.0235 1.01995 1.00991 1.02359 1.01995 1.01465 1.01995 1.01465 1.00955 1.0089 1.0235 1.01995 1.0128 1.00955 0.999856 0.999672 0.999793 0.999676 0.999793 0.999676 0.99968 0.999725 0.999317 0.999793 0.999451 0.99968 0.999271 0.999856 0.999317 0.999793 1.01017 1.00774 1.01014 1.00798 1.01014 1.00798 1.0098 1.00884 1.00927 1.01014 1.00937 1.0098 1.00933 1.01017 1.00927 1.01014 1.00957 1.00997 1.00851 1.00874 1.0092 1.00957 1.00827 1.00851 1.01008 1.01059 1.0092 1.00957 1.01059 1.01117 1.00957 1.00997 0.988963 0.991498 0.988791 0.991116 0.991498 0.993574 0.991116 0.993064 0.991116 0.993064 0.991098 0.992891 0.988791 0.991116 0.988995 0.991098 0.96683 0.96757 0.958395 0.96048 0.96786 0.96683 0.958203 0.958395 0.975273 0.973636 0.96786 0.96683 0.973636 0.973565 0.96683 0.96757 0.997546 0.996862 0.997877 0.997158 0.998109 0.997546 0.998461 0.997877 0.997874 0.997342 0.998109 0.997546 0.997342 0.996705 0.997546 0.996862 1.00721 1.00692 1.00743 1.00724 1.00692 1.00671 1.00724 1.00708 1.00724 1.00708 1.0075 1.0074 1.00743 1.00724 1.00762 1.0075 0.976273 0.817014 1.03144 0.957454 1.02977 0.976273 1.03024 1.03144 0.989206 0.864625 1.02977 0.976273 0.864625 0.695454 0.976273 0.817014 1.01833 1.01659 1.01711 1.01586 1.02068 1.01833 1.01867 1.01711 1.02217 1.01931 1.02068 1.01833 1.01931 1.01718 1.01833 1.01659 0.986254 0.986357 0.983035 0.983543 0.988963 0.988791 0.986254 0.986357 0.988791 0.988995 0.986357 0.986841 0.986357 0.986841 0.983543 0.984409 0.997877 0.997158 0.998259 0.997554 0.998259 0.997554 0.998783 0.998111 0.998829 0.998259 0.999323 0.998783 0.998461 0.997877 0.998829 0.998259 1.01943 1.02044 1.02129 1.02372 1.02129 1.02372 1.02183 1.02568 1.01903 1.02129 1.01913 1.02183 1.01846 1.01943 1.01903 1.02129 1.00387 1.00333 1.00078 0.999974 1.00333 1.00257 0.999974 0.999009 0.999974 0.999009 0.997148 0.995921 1.00078 0.999974 0.998103 0.997148 1.0293 1.01254 1.006 0.921785 1.01713 1.02604 1.0293 1.01254 1.02604 1.0197 1.01254 0.958122 1.01254 0.958122 0.921785 0.815175 1.00993 1.00952 1.00982 1.00947 1.01034 1.00993 1.01015 1.00982 1.01054 1.01002 1.01034 1.00993 1.01002 1.00956 1.00993 1.00952 0.996997 0.997488 0.997373 0.997833 0.997488 0.9979 0.997833 0.998222 0.997833 0.998222 0.998251 0.998615 0.997373 0.997833 0.997816 0.998251 1.00947 1.01015 1.01176 1.0096 1.01893 1.00947 1.02301 1.01176 1.01396 1.00883 1.01893 1.00947 1.00883 1.01054 1.00947 1.01015 1.00131 1.00045 1.00629 1.00827 1.00195 1.00131 1.00502 1.00629 0.999227 0.997015 1.00195 1.00131 0.997015 0.993882 1.00131 1.00045 1.00124 1.00097 1.00132 1.00109 1.00097 1.00067 1.00109 1.00083 1.00109 1.00083 1.00122 1.00101 1.00132 1.00109 1.00139 1.00122 1.00124 1.00162 1.00136 1.00171 1.00162 1.00204 1.00171 1.00209 1.00171 1.00209 1.00177 1.00212 1.00136 1.00171 1.00144 1.00177 0.996933 0.997373 0.997401 0.997816 0.996423 0.996933 0.996918 0.997401 0.99601 0.996536 0.996423 0.996933 0.996536 0.996997 0.996933 0.997373 1.00844 1.00871 1.00847 1.00875 1.00847 1.00875 1.00849 1.0088 1.00821 1.00847 1.00822 1.00849 1.0082 1.00844 1.00821 1.00847 1.02668 1.02977 1.01835 1.03024 1.01586 1.02668 1.01479 1.01835 1.02346 1.03082 1.01586 1.02668 1.03082 0.989206 1.02668 1.02977 0.999859 0.999758 1.00019 1.00011 0.999758 0.999651 1.00011 1.00003 1.00011 1.00003 0.999699 0.999633 1.00019 1.00011 0.999757 0.999699 0.994672 0.994538 0.99399 0.993794 0.99399 0.993794 0.993236 0.992969 0.994255 0.99399 0.993564 0.993236 0.994883 0.994672 0.994255 0.99399 1.00387 1.00412 1.0067 1.00667 1.00412 1.00428 1.00667 1.00665 1.00667 1.00665 1.00951 1.00928 1.0067 1.00667 1.0097 1.00951 1.00214 1.00176 1.00197 1.00158 1.00258 1.00214 1.00242 1.00197 1.00269 1.00227 1.00258 1.00214 1.00227 1.0019 1.00214 1.00176 1.04171 1.0448 1.04609 1.04992 1.04609 1.04992 1.05105 1.05621 1.04137 1.04609 1.04512 1.05105 1.0379 1.04171 1.04137 1.04609 0.994614 0.993715 0.992113 0.991773 0.995371 0.994614 0.992508 0.992113 0.998103 0.997148 0.995371 0.994614 0.997148 0.995921 0.994614 0.993715 0.992627 1.02205 0.980723 1.02152 0.980723 1.02152 0.969616 1.0195 0.858809 0.980723 0.856119 0.969616 0.862365 0.992627 0.858809 0.980723 1.00814 1.00817 1.00798 1.00802 1.00798 1.00802 1.00786 1.0079 1.00794 1.00798 1.00781 1.00786 1.00811 1.00814 1.00794 1.00798 1.00515 1.00497 1.00555 1.00537 1.00473 1.00456 1.00515 1.00497 1.00456 1.00441 1.00497 1.00483 1.00497 1.00483 1.00537 1.00523 0.987381 1.02557 0.967764 1.02621 1.00075 1.02327 0.987381 1.02557 1.02327 1.00686 1.02557 1.00979 1.02557 1.00979 1.02621 1.01396 1.01673 1.0173 1.0191 1.01994 1.0173 1.01769 1.01994 1.0206 1.01994 1.0206 1.02273 1.02375 1.0191 1.01994 1.02155 1.02273 1.01829 1.01969 1.02004 1.02189 1.01658 1.01829 1.01791 1.02004 1.01545 1.01686 1.01658 1.01829 1.01686 1.01796 1.01829 1.01969 0.978689 0.978666 0.974722 0.974421 0.978666 0.979461 0.974421 0.975229 0.974421 0.975229 0.968913 0.969578 0.974722 0.974421 0.969816 0.968913 1.02791 0.926597 1.0413 1.02585 0.957454 0.765614 1.02791 0.926597 0.765614 0.564601 0.926597 0.651453 0.926597 0.651453 1.02585 0.869615 1.02106 1.02446 1.02166 1.02557 1.02033 1.02326 1.02106 1.02446 1.02326 1.02608 1.02446 1.02789 1.02446 1.02789 1.02557 1.02967 0.981193 0.979144 0.979235 0.976541 0.983094 0.981546 0.981193 0.979144 0.981546 0.980259 0.979144 0.97732 0.979144 0.97732 0.976541 0.973975 1.0094 1.00928 1.00919 1.00909 1.00954 1.0094 1.00929 1.00919 1.00976 1.00961 1.00954 1.0094 1.00961 1.00947 1.0094 1.00928 0.95591 1.02617 0.951741 1.02589 0.867776 0.95591 0.864923 0.951741 0.87048 0.959768 0.867776 0.95591 0.959768 1.02635 0.95591 1.02617 1.01012 1.0106 1.00986 1.01025 1.00986 1.01025 1.00968 1.00996 1.0098 1.00986 1.00962 1.00968 1.01 1.01012 1.0098 1.00986 1.00286 1.0031 1.00223 1.0025 1.00223 1.0025 1.00168 1.00196 1.00188 1.00223 1.00131 1.00168 1.00254 1.00286 1.00188 1.00223 0.993133 0.993892 0.991855 0.99256 0.991855 0.99256 0.990344 0.990985 0.991434 0.991855 0.989897 0.990344 0.992703 0.993133 0.991434 0.991855 0.999605 0.999741 0.999515 0.999686 0.999463 0.999605 0.999342 0.999515 0.999421 0.999535 0.999463 0.999605 0.999535 0.999651 0.999605 0.999741 1.00127 1.00096 1.00158 1.00133 1.00101 1.00066 1.00127 1.00096 1.00066 1.00023 1.00096 1.00056 1.00096 1.00056 1.00133 1.001