# vtk DataFile Version 3.0
#This file was generated by the deal.II library on 2020/11/23 at 12:11:46
ASCII
DATASET UNSTRUCTURED_GRID

POINTS 26524 double
-13.8533 10.5081 0
-14.9532 10.4145 0
-13.8388 9.35329 0
-14.8872 9.24174 0
-12.7534 10.6016 0
-13.8533 10.5081 0
-12.7904 9.46484 0
-13.8388 9.35329 0
-12.7163 11.7384 0
-13.8678 11.6628 0
-12.7534 10.6016 0
-13.8533 10.5081 0
-13.8678 11.6628 0
-15.0192 11.5873 0
-13.8533 10.5081 0
-14.9532 10.4145 0
6.18761 -7.41969 0
5.68679 -8.05868 0
6.93245 -7.92212 0
6.48377 -8.63461 0
6.68843 -6.78069 0
6.18761 -7.41969 0
7.38113 -7.20964 0
6.93245 -7.92212 0
5.99574 -6.35175 0
5.44277 -6.91725 0
6.68843 -6.78069 0
6.18761 -7.41969 0
5.44277 -6.91725 0
4.8898 -7.48276 0
6.18761 -7.41969 0
5.68679 -8.05868 0
-16.52 -16.7928 0
-16.6158 -18.2087 0
-15.1257 -16.9192 0
-15.2028 -18.2792 0
-16.4243 -15.3769 0
-16.52 -16.7928 0
-15.0487 -15.5592 0
-15.1257 -16.9192 0
-17.7999 -15.1946 0
-17.9143 -16.6664 0
-16.4243 -15.3769 0
-16.52 -16.7928 0
-17.9143 -16.6664 0
-18.0287 -18.1381 0
-16.52 -16.7928 0
-16.6158 -18.2087 0
0.195599 -5.11785 0
0.4401 -4.81589 0
-0.135808 -4.865 0
-0.037812 -4.60222 0
-0.0489017 -5.4198 0
0.195599 -5.11785 0
-0.233805 -5.12777 0
-0.135808 -4.865 0
0.136002 -5.71183 0
0.527007 -5.3707 0
-0.0489017 -5.4198 0
0.195599 -5.11785 0
0.527007 -5.3707 0
0.918012 -5.02957 0
0.195599 -5.11785 0
0.4401 -4.81589 0
-6.6434 -12.9082 0
-6.46182 -11.8249 0
-7.65596 -12.5808 0
-7.46659 -11.3517 0
-6.82499 -13.9915 0
-6.6434 -12.9082 0
-7.84532 -13.81 0
-7.65596 -12.5808 0
-5.80466 -14.173 0
-5.63085 -13.2356 0
-6.82499 -13.9915 0
-6.6434 -12.9082 0
-5.63085 -13.2356 0
-5.45704 -12.2981 0
-6.6434 -12.9082 0
-6.46182 -11.8249 0
2.16835 3.32526 0
2.00558 3.56548 0
2.06204 3.09251 0
1.77752 3.28856 0
2.00558 3.56548 0
1.84282 3.8057 0
1.77752 3.28856 0
1.493 3.48462 0
4.50551 -8.2033 0
5.23543 -8.76841 0
4.8898 -7.48276 0
5.68679 -8.05868 0
4.12122 -8.92384 0
4.78406 -9.47814 0
4.50551 -8.2033 0
5.23543 -8.76841 0
4.78406 -9.47814 0
5.44691 -10.0324 0
5.23543 -8.76841 0
5.96534 -9.33352 0
5.23543 -8.76841 0
5.96534 -9.33352 0
5.68679 -8.05868 0
6.48377 -8.63461 0
-7.09602 -2.18563 0
-6.53929 -2.09015 0
-7.19023 -1.60862 0
-6.63537 -1.55166 0
-7.65275 -2.2811 0
-7.09602 -2.18563 0
-7.7451 -1.66558 0
-7.19023 -1.60862 0
-7.5604 -2.89663 0
-7.00181 -2.76263 0
-7.65275 -2.2811 0
-7.09602 -2.18563 0
-7.00181 -2.76263 0
-6.44321 -2.62864 0
-7.09602 -2.18563 0
-6.53929 -2.09015 0
-2.99863 -15.6354 0
-2.93376 -14.6426 0
-3.9936 -15.5216 0
-3.88612 -14.5339 0
-3.06349 -16.6282 0
-2.99863 -15.6354 0
-4.10108 -16.5094 0
-3.9936 -15.5216 0
-2.02591 -16.7471 0
-2.00365 -15.7492 0
-3.06349 -16.6282 0
-2.99863 -15.6354 0
-2.00365 -15.7492 0
-1.98139 -14.7512 0
-2.99863 -15.6354 0
-2.93376 -14.6426 0
2.66291 11.5461 0
2.11456 12.0747 0
2.37894 11.0136 0
1.69665 11.3983 0
2.94689 12.0785 0
2.53246 12.7511 0
2.66291 11.5461 0
2.11456 12.0747 0
2.53246 12.7511 0
2.11803 13.4236 0
2.11456 12.0747 0
1.5662 12.6033 0
2.11456 12.0747 0
1.5662 12.6033 0
1.69665 11.3983 0
1.01437 11.7831 0
-17.7367 5.55532 0
-17.596 4.42597 0
-16.639 5.64414 0
-16.4858 4.51282 0
-17.8774 6.68468 0
-17.7367 5.55532 0
-16.7921 6.77546 0
-16.639 5.64414 0
-18.9626 6.5939 0
-18.8343 5.4665 0
-17.8774 6.68468 0
-17.7367 5.55532 0
-18.8343 5.4665 0
-18.7061 4.33911 0
-17.7367 5.55532 0
-17.596 4.42597 0
0.500602 -6.26192 0
0.865203 -6.812 0
0.83358 -5.86282 0
1.14015 -6.35495 0
0.83358 -5.86282 0
1.14015 -6.35495 0
1.16656 -5.46373 0
1.4151 -5.8979 0
0.527007 -5.3707 0
0.83358 -5.86282 0
0.918012 -5.02957 0
1.16656 -5.46373 0
0.136002 -5.71183 0
0.500602 -6.26192 0
0.527007 -5.3707 0
0.83358 -5.86282 0
-6.09556 1.34295 0
-6.73605 1.12671 0
-6.00943 0.866205 0
-6.50466 0.715526 0
-6.73605 1.12671 0
-7.37654 0.910466 0
-6.50466 0.715526 0
-6.99989 0.564847 0
-6.50466 0.715526 0
-6.99989 0.564847 0
-6.27328 0.304345 0
-6.62325 0.219227 0
-6.00943 0.866205 0
-6.50466 0.715526 0
-5.9233 0.389462 0
-6.27328 0.304345 0
-3.55738 2.17353 0
-3.96957 2.28361 0
-3.63982 1.77638 0
-4.04779 1.84728 0
-3.63982 1.77638 0
-4.04779 1.84728 0
-3.72226 1.37924 0
-4.12602 1.41094 0
-8.83701 -10.1701 0
-8.95705 -9.01482 0
-9.98285 -10.0693 0
-9.99835 -8.8394 0
-8.71697 -11.3255 0
-8.83701 -10.1701 0
-9.96735 -11.2993 0
-9.98285 -10.0693 0
-7.46659 -11.3517 0
-7.69118 -10.271 0
-8.71697 -11.3255 0
-8.83701 -10.1701 0
-7.69118 -10.271 0
-7.91576 -9.19023 0
-8.83701 -10.1701 0
-8.95705 -9.01482 0
2.59187 6.16225 0
2.10362 6.42806 0
2.30681 5.67978 0
1.82865 5.93949 0
3.08011 5.89645 0
2.59187 6.16225 0
2.78498 5.42006 0
2.30681 5.67978 0
3.37524 6.37284 0
2.87692 6.64473 0
3.08011 5.89645 0
2.59187 6.16225 0
2.87692 6.64473 0
2.3786 6.91662 0
2.59187 6.16225 0
2.10362 6.42806 0
-2.92812 1.6542 0
-2.97049 1.34575 0
-2.62439 1.60292 0
-2.62247 1.34397 0
-2.88575 1.96266 0
-2.92812 1.6542 0
-2.62631 1.86187 0
-2.62439 1.60292 0
-3.14519 2.06345 0
-3.23185 1.70549 0
-2.88575 1.96266 0
-2.92812 1.6542 0
-3.23185 1.70549 0
-3.31851 1.34753 0
-2.92812 1.6542 0
-2.97049 1.34575 0
6.76398 -9.92413 0
7.30183 -9.18428 0
5.96534 -9.33352 0
6.48377 -8.63461 0
6.22613 -10.664 0
6.76398 -9.92413 0
5.44691 -10.0324 0
5.96534 -9.33352 0
7.00535 -11.2955 0
7.56262 -10.5147 0
6.22613 -10.664 0
6.76398 -9.92413 0
7.56262 -10.5147 0
8.11989 -9.73396 0
6.76398 -9.92413 0
7.30183 -9.18428 0
-2.69428 -11.1482 0
-3.49425 -11.0361 0
-2.75631 -11.9838 0
-3.59383 -11.8717 0
-2.75631 -11.9838 0
-3.59383 -11.8717 0
-2.81834 -12.8193 0
-3.69341 -12.7073 0
-1.91879 -12.0958 0
-2.75631 -11.9838 0
-1.94327 -12.9313 0
-2.81834 -12.8193 0
-1.89431 -11.2604 0
-2.69428 -11.1482 0
-1.91879 -12.0958 0
-2.75631 -11.9838 0
-6.8542 7.83518 0
-7.44002 7.11541 0
-6.17373 7.30902 0
-6.79489 6.5277 0
-7.53466 8.36135 0
-8.08515 7.70312 0
-6.8542 7.83518 0
-7.44002 7.11541 0
-8.08515 7.70312 0
-8.63564 7.0449 0
-7.44002 7.11541 0
-8.02585 6.39564 0
-7.44002 7.11541 0
-8.02585 6.39564 0
-6.79489 6.5277 0
-7.41606 5.74639 0
-5.77923 10.5665 0
-6.45007 11.1197 0
-6.33474 9.84893 0
-7.14514 10.5844 0
-5.22372 11.2841 0
-5.755 11.655 0
-5.77923 10.5665 0
-6.45007 11.1197 0
-5.755 11.655 0
-6.28628 12.0259 0
-6.45007 11.1197 0
-7.12091 11.6728 0
-6.45007 11.1197 0
-7.12091 11.6728 0
-7.14514 10.5844 0
-7.95554 11.3198 0
11.7316 8.01612 0
10.5849 8.05811 0
11.5847 6.88044 0
10.5094 7.09109 0
12.8782 7.97412 0
11.7316 8.01612 0
12.6599 6.6698 0
11.5847 6.88044 0
13.0965 9.27845 0
11.8785 9.15179 0
12.8782 7.97412 0
11.7316 8.01612 0
11.8785 9.15179 0
10.6605 9.02512 0
11.7316 8.01612 0
10.5849 8.05811 0
4.9747 5.68406 0
4.75811 5.06836 0
5.5306 5.5222 0
5.41186 4.9162 0
4.41879 5.84593 0
4.10437 5.22051 0
4.9747 5.68406 0
4.75811 5.06836 0
-0.490783 15.4803 0
-1.18801 14.5281 0
-0.037515 14.6474 0
-0.586272 13.8846 0
-1.18801 14.5281 0
-1.88524 13.576 0
-0.586272 13.8846 0
-1.13503 13.1219 0
-0.586272 13.8846 0
-1.13503 13.1219 0
0.0154684 13.2411 0
-0.384816 12.6678 0
-0.037515 14.6474 0
-0.586272 13.8846 0
0.415752 13.8145 0
0.0154684 13.2411 0
-9.04999 12.7177 0
-9.19959 11.5011 0
-7.85416 12.5391 0
-7.95554 11.3198 0
-8.9004 13.9344 0
-9.04999 12.7177 0
-7.75277 13.7585 0
-7.85416 12.5391 0
-10.048 14.1103 0
-10.2458 12.8963 0
-8.9004 13.9344 0
-9.04999 12.7177 0
-10.2458 12.8963 0
-10.4436 11.6824 0
-9.04999 12.7177 0
-9.19959 11.5011 0
7.14485 -15.7524 0
8.16732 -15.452 0
6.65415 -14.7524 0
7.27677 -14.2703 0
6.12237 -16.0527 0
7.14485 -15.7524 0
6.03153 -15.2344 0
6.65415 -14.7524 0
6.21321 -16.8709 0
7.63554 -16.7523 0
6.12237 -16.0527 0
7.14485 -15.7524 0
7.63554 -16.7523 0
9.05786 -16.6337 0
7.14485 -15.7524 0
8.16732 -15.452 0
-4.88103 -2.69798 0
-4.44073 -2.5566 0
-5.00057 -2.23678 0
-4.54298 -2.10972 0
-5.32134 -2.83936 0
-4.88103 -2.69798 0
-5.45817 -2.36384 0
-5.00057 -2.23678 0
-5.1845 -3.31487 0
-4.7615 -3.15918 0
-5.32134 -2.83936 0
-4.88103 -2.69798 0
-4.7615 -3.15918 0
-4.33849 -3.00348 0
-4.88103 -2.69798 0
-4.44073 -2.5566 0
2.57958 -10.6427 0
3.12221 -11.2543 0
2.82549 -10 0
3.56606 -10.6753 0
2.33367 -11.2854 0
2.67837 -11.8333 0
2.57958 -10.6427 0
3.12221 -11.2543 0
2.67837 -11.8333 0
3.02307 -12.3812 0
3.12221 -11.2543 0
3.66485 -11.8659 0
3.12221 -11.2543 0
3.66485 -11.8659 0
3.56606 -10.6753 0
4.30663 -11.3505 0
42.7057 -20.2107 0
40.3051 -20.3541 0
42.8605 -22.6801 0
40.5134 -22.7877 0
42.8605 -22.6801 0
40.5134 -22.7877 0
43.0153 -25.1495 0
40.7218 -25.2213 0
45.2075 -22.5726 0
42.8605 -22.6801 0
45.3087 -25.0778 0
43.0153 -25.1495 0
45.1063 -20.0674 0
42.7057 -20.2107 0
45.2075 -22.5726 0
42.8605 -22.6801 0
-10.485 -5.9237 0
-10.2461 -6.70991 0
-9.73301 -5.68794 0
-9.51709 -6.43588 0
-10.7239 -5.13749 0
-10.485 -5.9237 0
-9.94892 -4.93999 0
-9.73301 -5.68794 0
-11.4989 -5.33498 0
-11.237 -6.15945 0
-10.7239 -5.13749 0
-10.485 -5.9237 0
-11.237 -6.15945 0
-10.9751 -6.98393 0
-10.485 -5.9237 0
-10.2461 -6.70991 0
8.21205 -7.65767 0
7.38113 -7.20964 0
7.75694 -8.42098 0
6.93245 -7.92212 0
7.75694 -8.42098 0
6.93245 -7.92212 0
7.30183 -9.18428 0
6.48377 -8.63461 0
8.58144 -8.91983 0
7.75694 -8.42098 0
8.11989 -9.73396 0
7.30183 -9.18428 0
9.04298 -8.1057 0
8.21205 -7.65767 0
8.58144 -8.91983 0
7.75694 -8.42098 0
-3.5104 -7.25969 0
-2.94414 -7.48455 0
-3.22633 -6.77823 0
-2.82242 -6.89845 0
-4.07667 -7.03483 0
-3.5104 -7.25969 0
-3.63024 -6.65801 0
-3.22633 -6.77823 0
-4.52309 -7.41164 0
-3.79447 -7.74114 0
-4.07667 -7.03483 0
-3.5104 -7.25969 0
-3.79447 -7.74114 0
-3.06585 -8.07065 0
-3.5104 -7.25969 0
-2.94414 -7.48455 0
-4.30606 7.29041 0
-4.48617 7.95181 0
-4.63655 6.86877 0
-5.02828 7.41495 0
-4.48617 7.95181 0
-4.66629 8.61321 0
-5.02828 7.41495 0
-5.42001 7.96112 0
-5.02828 7.41495 0
-5.42001 7.96112 0
-5.57039 6.87808 0
-6.17373 7.30902 0
-4.63655 6.86877 0
-5.02828 7.41495 0
-4.96704 6.44714 0
-5.57039 6.87808 0
2.3316 4.77727 0
2.48064 4.46186 0
2.55829 5.09867 0
2.88405 4.73472 0
2.48064 4.46186 0
2.62968 4.14645 0
2.88405 4.73472 0
3.20982 4.37078 0
2.55829 5.09867 0
2.88405 4.73472 0
2.78498 5.42006 0
3.28747 5.00758 0
6.02207 -4.87875 0
[...]
POINT_DATA 26524
SCALARS solution_0 double 1
LOOKUP_TABLE default
0.999726 0.999672 0.999304 0.999308 0.999831 0.999726 0.999341 0.999304 1.00027 1.0001 0.999831 0.999726 1.0001 0.999993 0.999726 0.999672 1.01984 1.01894 1.01853 1.01772 1.0205 1.01984 1.01915 1.01853 1.02215 1.02143 1.0205 1.01984 1.02143 1.02039 1.01984 1.01894 1.00069 1.0008 1.00092 1.00105 1.00053 1.00069 1.00076 1.00092 1.0004 1.00053 1.00053 1.00069 1.00053 1.00063 1.00069 1.0008 1.01881 1.02182 1.01691 1.01845 1.0163 1.01881 1.01556 1.01691 1.0168 1.02014 1.0163 1.01881 1.02014 1.02403 1.01881 1.02182 1.00294 1.00264 1.0022 1.00174 1.00314 1.00294 1.00252 1.0022 1.00382 1.00374 1.00314 1.00294 1.00374 1.0036 1.00294 1.00264 1.04739 1.04375 1.05127 1.04746 1.04375 1.04005 1.04746 1.04301 1.01881 1.01775 1.02039 1.01894 1.01726 1.01651 1.01881 1.01775 1.01651 1.01582 1.01775 1.01682 1.01775 1.01682 1.01894 1.01772 0.987647 0.985959 0.986905 0.985118 0.989087 0.987647 0.988428 0.986905 0.989972 0.988641 0.989087 0.987647 0.988641 0.987086 0.987647 0.985959 1.00584 1.00596 1.00516 1.00523 1.0057 1.00584 1.00507 1.00516 1.00633 1.00652 1.0057 1.00584 1.00652 1.0067 1.00584 1.00596 1.01267 1.01171 1.013 1.01193 1.01235 1.01146 1.01267 1.01171 1.01146 1.01065 1.01171 1.01081 1.01171 1.01081 1.01193 1.0109 0.99883 0.998588 0.99856 0.998269 0.999066 0.99883 0.998855 0.99856 0.999131 0.998958 0.999066 0.99883 0.998958 0.998826 0.99883 0.998588 1.01726 1.01724 1.01996 1.01947 1.01996 1.01947 1.02319 1.02219 1.02014 1.01996 1.02403 1.02319 1.0168 1.01726 1.02014 1.01996 0.982807 0.984845 0.981508 0.983507 0.984845 0.986678 0.983507 0.985205 0.983507 0.985205 0.98217 0.983626 0.981508 0.983507 0.980517 0.98217 0.975263 0.977916 0.971482 0.974626 0.971482 0.974626 0.968263 0.97189 1.00033 0.999395 0.999919 0.999055 1.00108 1.00033 1.00061 0.999919 1.00174 1.00093 1.00108 1.00033 1.00093 0.999933 1.00033 0.999395 1.02421 1.02226 1.02606 1.02366 1.02589 1.02421 1.02814 1.02606 1.02401 1.02262 1.02589 1.02421 1.02262 1.021 1.02421 1.02226 0.964748 0.960147 0.96135 0.955882 0.969649 0.964748 0.966669 0.96135 0.972255 0.967808 0.969649 0.964748 0.967808 0.963965 0.964748 0.960147 1.01594 1.0167 1.01682 1.01772 1.01509 1.01594 1.01582 1.01682 1.01444 1.01517 1.01509 1.01594 1.01517 1.01582 1.01594 1.0167 1.00627 1.00522 1.00623 1.00528 1.00623 1.00528 1.00616 1.00529 1.0072 1.00623 1.00704 1.00616 1.00734 1.00627 1.0072 1.00623 0.999136 0.99786 0.99881 0.99711 0.999409 0.998446 0.999136 0.99786 0.998446 0.997569 0.99786 0.996714 0.99786 0.996714 0.99711 0.995621 1.00264 1.0024 1.00164 1.00159 1.00356 1.00324 1.00264 1.0024 1.00324 1.00297 1.0024 1.00223 1.0024 1.00223 1.00159 1.00155 1.01525 1.01593 1.01576 1.01649 1.01465 1.01525 1.01509 1.01576 1.01411 1.01467 1.01465 1.01525 1.01467 1.01533 1.01525 1.01593 1.02546 1.02797 1.02497 1.02689 1.02562 1.02857 1.02546 1.02797 1.00775 1.0075 1.00836 1.00821 1.0075 1.00712 1.00821 1.00795 1.00821 1.00795 1.00901 1.00888 1.00836 1.00821 1.00908 1.00901 1.00166 1.00106 1.00218 1.00155 1.00213 1.00166 1.00264 1.00218 1.00172 1.00127 1.00213 1.00166 1.00127 1.00072 1.00166 1.00106 1.0111 1.01143 1.0116 1.01203 1.01069 1.0111 1.01115 1.0116 1.01028 1.01066 1.01069 1.0111 1.01066 1.01093 1.0111 1.01143 0.98335 0.98127 0.981321 0.978759 0.985143 0.98335 0.983482 0.981321 0.987031 0.985619 0.985143 0.98335 0.985619 0.98403 0.98335 0.98127 1.01346 1.01318 1.01455 1.0142 1.01251 1.01225 1.01346 1.01318 1.01225 1.01199 1.01318 1.01289 1.01318 1.01289 1.0142 1.0138 1.00953 1.00956 1.00928 1.00933 1.00928 1.00933 1.0091 1.00915 1.00924 1.00928 1.00906 1.0091 1.00949 1.00953 1.00924 1.00928 0.996616 0.997267 0.996091 0.996843 0.996023 0.996616 0.995399 0.996091 0.996565 0.997077 0.996023 0.996616 0.997077 0.997641 0.996616 0.997267 1.01789 1.01915 1.01738 1.01853 1.01738 1.01853 1.0167 1.01772 1.01641 1.01738 1.01582 1.0167 1.01686 1.01789 1.01641 1.01738 1.00234 1.00404 1.00223 1.00358 1.00079 1.00234 1.00098 1.00223 1.00069 1.00247 1.00079 1.00234 1.00247 1.00436 1.00234 1.00404 1.00108 1.00179 0.999737 1.00016 1.00179 1.0023 1.00016 1.00052 1.00016 1.00052 0.998573 0.99881 0.999737 1.00016 0.998356 0.998573 1.0318 1.03452 1.02982 1.03247 1.03452 1.03739 1.03247 1.03499 1.02982 1.03247 1.02814 1.03057 1.02523 1.02589 1.02754 1.02855 1.02335 1.02376 1.02523 1.02589 0.998369 0.997995 0.998588 0.998269 0.998693 0.998369 0.998826 0.998588 0.998569 0.998186 0.998693 0.998369 0.998186 0.997758 0.998369 0.997995 0.997499 0.999337 0.998672 0.999932 0.99664 0.998892 0.997499 0.999337 0.998892 1.00069 0.999337 1.00079 0.999337 1.00079 0.999932 1.00098 1.01093 1.01031 1.01077 1.01013 1.01031 1.00977 1.01013 1.00956 1.01013 1.00956 1.00997 1.00939 1.01077 1.01013 1.0106 1.00997 1.02982 1.02814 1.02817 1.02606 1.02817 1.02606 1.02584 1.02366 1.0307 1.02817 1.02864 1.02584 1.0318 1.02982 1.0307 1.02817 1.01648 1.01564 1.01755 1.01662 1.01715 1.01648 1.01831 1.01755 1.01617 1.01557 1.01715 1.01648 1.01557 1.0148 1.01648 1.01564 1.01134 1.01134 1.01116 1.01113 1.01784 1.01952 1.01202 1.01248 1.02299 1.02581 1.01784 1.01952 1.00179 1.00277 1.0023 1.00357 1.00108 1.00176 1.00179 1.00277 1.00176 1.00266 1.00277 1.00412 1.00277 1.00412 1.00357 1.00526 1.02291 1.02114 1.02335 1.02148 1.02215 1.0205 1.02291 1.02114 1.0205 1.01915 1.02114 1.01969 1.02114 1.01969 1.02148 1.01998 1.00063 1.00071 1.0008 1.0009 1.00071 1.00077 1.0009 1.00097 1.0009 1.00097 1.00116 1.00124 1.0008 1.0009 1.00105 1.00116 1.00719 1.00729 1.00672 1.00681 1.00729 1.00746 1.00681 1.00696 1.00681 1.00696 1.0063 1.00643 1.00672 1.00681 1.00621 1.0063 1.01416 1.01227 1.01369 1.01179 1.01429 1.01249 1.01416 1.01227 1.01249 1.01084 1.01227 1.0106 1.01227 1.0106 1.01179 1.01013 1.0084 1.00869 1.00861 1.00896 1.00861 1.00896 1.00895 1.00939 1.00818 1.00861 1.00842 1.00895 1.00804 1.0084 1.00818 1.00861 1.01331 1.01369 1.01251 1.0128 1.01424 1.01474 1.01331 1.01369 1.01474 1.01499 1.01369 1.0139 1.01369 1.0139 1.0128 1.01296 1.01343 1.01437 1.0121 1.0128 1.0121 1.0128 1.01063 1.01108 1.01146 1.0121 1.01021 1.01063 1.01261 1.01343 1.01146 1.0121 1.00997 1.00997 1.01032 1.01039 1.00967 1.00963 1.00997 1.00997 1.00963 1.00955 1.00997 1.00995 1.00997 1.00995 1.01039 1.01044 1.02589 1.02814 1.02749 1.03057 1.02503 1.02749 1.02562 1.02857 1.02401 1.02589 1.02503 1.02749 1.00916 1.00877 1.00882 1.00846 1.00963 1.00916 1.00925 1.00882 1.00994 1.00945 1.00963 1.00916 1.00945 1.00903 1.00916 1.00877 1.00159 1.00108 1.0011 1.00061 1.00196 1.00159 1.00149 1.0011 1.00252 1.0022 1.00196 1.00159 1.0022 1.00174 1.00159 1.00108 0.997641 0.997989 0.998306 0.998529 0.997989 0.998293 0.998529 0.998736 0.998529 0.998736 0.999104 0.99919 0.998306 0.998529 0.999055 0.999104 0.998356 0.998573 0.996451 0.996716 0.998573 0.99881 0.996716 0.99711 0.996716 0.99711 0.995011 0.995621 0.998446 0.998714 0.997569 0.997951 0.999409 0.99953 0.998446 0.998714 0.99953 0.999649 0.998714 0.998952 0.998714 0.998952 0.997951 0.99828 1.00789 1.00818 1.00721 1.00745 1.00721 1.00745 1.00652 1.0067 1.00699 1.00721 1.00633 1.00652 1.00763 1.00789 1.00699 1.00721 1.01029 1.0105 1.01008 1.01024 1.01008 1.01024 1.00988 1.00999 1.00994 1.01008 1.00979 1.00988 1.0101 1.01029 1.00994 1.01008 0.998672 0.999932 1.00016 1.00131 0.999932 1.00098 1.00131 1.00223 1.00131 1.00223 1.00286 1.00358 1.00016 1.00131 1.00195 1.00286 1.00908 1.0087 1.00946 1.00917 1.0087 1.00842 1.00917 1.00895 1.00917 1.00895 1.00956 1.00939 1.00946 1.00917 1.00977 1.00956 1.0092 1.00927 1.00939 1.00944 1.00939 1.00944 1.00966 1.00968 1.0093 1.00939 1.00961 1.00966 1.00908 1.0092 1.0093 1.00939 1.00914 1.00893 1.00895 1.00874 1.00943 1.00914 1.00925 1.00895 1.00955 1.00928 1.00943 1.00914 1.00928 1.00908 1.00914 1.00893 1.00586 1.00662 1.00578 1.00644 1.00592 1.0068 1.00586 1.00662 1.0068 1.00775 1.00662 1.00741 1.00662 1.00741 1.00644 1.0071 1.00106 1.00035 1.00155 1.00062 1.00072 1.00016 1.00106 1.00035 1.00016 0.99953 1.00035 0.999568 1.00035 0.999568 1.00062 0.999649 1.00901 1.00888 1.0099 1.00985 1.0099 1.00985 1.01081 1.0109 1.00988 1.0099 1.01065 1.01081 1.00908 1.00901 1.00988 1.0099 0.996104 0.996371 0.995452 0.99575 0.996704 0.99696 0.996104 0.996371 0.99696 0.997211 0.996371 0.996643 0.996371 0.996643 0.99575 0.996072 1.00079 1.00053 1.00057 1.00032 1.001 1.00079 1.00076 1.00057 1.0013 1.00108 1.001 1.00079 1.00108 1.00079 1.00079 1.00053 0.999788 0.999796 0.999685 0.99969 0.999783 0.999788 0.999687 0.999685 0.999251 0.99926 0.999783 0.999788 0.99926 0.999302 0.999788 0.999796 1.00677 1.00624 1.00658 1.00605 1.00624 1.00569 1.00605 1.00551 1.00605 1.00551 1.00591 1.00537 1.00658 1.00605 1.00643 1.00591 1.01471 1.01362 1.01559 1.01429 1.01564 1.01471 1.01662 1.01559 1.0148 1.01395 1.01564 1.01471 1.01395 1.013 1.01471 1.01362 1.00203 1.0017 1.00197 1.00165 1.0017 1.00138 1.00165 1.00135 1.00165 1.00135 1.0016 1.00132 1.00197 1.00165 1.0019 1.0016 1.00025 0.999895 1.00007 0.99976 1.00053 1.00025 1.00032 1.00007 1.00079 1.00048 1.00053 1.00025 1.00048 1.00008 1.00025 0.999895 0.999879 0.999789 1.00002 1.00003 0.999789 0.999736 1.00003 1.00001 1.00003 1.00001 0.999455 0.999425 1.00002 1.00003 0.999687 0.999455 1.06255 1.06844 1.06458 1.07282 0.998109 0.99768 0.998027 0.997574 0.998497 0.998109 0.998435 0.998027 0.998599 0.998247 0.998497 0.998109 0.998247 0.997849 0.998109 0.99768 1.03625 1.04029 1.0341 1.03835 1.04029 1.04511 1.03835 1.0438 1.03835 1.0438 1.03545 1.04085 1.0341 1.03835 1.03142 1.03545 1.01686 1.01723 1.01789 1.01833 1.01723 1.01744 1.01833 1.01857 1.01833 1.01857 1.01969 1.01998 1.01789 1.01833 1.01915 1.01969 1.0181 1.01908 1.0173 1.01806 1.01908 1.01988 1.01806 1.01864 1.01806 1.01864 1.01707 1.01754 1.0173 1.01806 1.01649 1.01707 1.04029 1.03907 1.04511 1.04505 1.03625 1.03427 1.04029 1.03907 1.01942 1.0207 1.01892 1.02042 1.01892 1.02042 1.01821 1.01984 1.01761 1.01892 1.01685 1.01821 1.01826 1.01942 1.01761 1.01892 0.981365 0.985416 0.980069 0.985362 0.985416 0.988911 0.985362 0.98996 1.00741 1.00812 1.0071 1.00773 1.00775 1.00856 1.00741 1.00812 1.00856 1.00926 1.00812 1.00875 1.00812 1.00875 1.00773 1.00831 0.979993 0.977411 0.980517 0.978068 0.979828 0.977214 0.979993 0.977411 0.977214 0.974075 0.977411 0.974306 0.977411 0.974306 0.978068 0.975145 1.00374 1.00449 1.0036 1.00443 1.00382 1.00451 1.00374 1.00449 1.00451 1.00523 1.00449 1.00528 1.00449 1.00528 1.00443 1.00529 1.00887 1.00931 1.00912 1.00953 1.00852 1.00887 1.00877 1.00912 1.00821 1.00858 1.00852 1.00887 1.00858 1.00903 1.00887 1.00931 1.01175 1.01141 1.01251 1.01217 1.01108 1.01075 1.01175 1.01141 1.01075 1.01033 1.01141 1.01097 1.01141 1.01097 1.01217 1.0117 1.00266 1.00399 1.00412 1.00554 1.00399 1.00578 1.00554 1.00738 1.00554 1.00738 1.00673 1.00854 1.00412 1.00554 1.00526 1.00673 0.999891 0.999687 0.999888 0.999685 0.999888 0.999685 0.999894 0.99969 0.999934 0.999888 0.999931 0.999894 0.999936 0.999891 0.999934 0.999888 0.989389 0.991132 0.990574 0.992047 0.987745 0.989389 0.989187 0.990574 0.986122 0.988092 0.987745 0.989389 0.988092 0.990173 0.989389 0.991132 1.00978 1.01008 1.00976 1.01008 1.00976 1.01008 1.00975 1.01008 1.00949 1.00976 1.00946 1.00975 1.00952 1.00978 1.00949 1.00976 0.992083 0.991001 0.990938 0.989722 0.991001 0.989746 0.989722 0.988302 0.989722 0.988302 0.988641 0.987086 0.990938 0.989722 0.989972 0.988641 0.994725 0.993958 0.995399 0.994734 0.993955 0.993059 0.994725 0.993958 0.993059 0.992303 0.993958 0.993312 0.993958 0.993312 0.994734 0.994176 1.00296 1.00253 1.00217 1.00162 1.00217 1.00162 1.00148 1.00088 1.00261 1.00217 1.00198 1.00148 1.00329 1.00296 1.00261 1.00217 1.0104 1.00998 1.01035 1.00998 1.00998 1.00961 1.00998 1.00966 1.00998 1.00966 1.00996 1.00968 1.01035 1.00998 1.01028 1.00996 1.00001 1.00004 1.0001 1.00011 1.0001 1.00011 1.00002 1.00003 1.00008 1.0001 1.00001 1.00002 0.99998 1.00001 1.00008 1.0001 0.995189 0.994724 0.995826 0.995394 0.995826 0.995394 0.996461 0.996072 0.996238 0.995826 0.996833 0.996461 0.995633 0.995189 0.996238 0.995826 1.02227 1.02114 1.02401 1.02262 1.0208 1.01987 1.02227 1.02114 1.01987 1.01873 1.02114 1.01979 1.02114 1.01979 1.02262 1.021 1.01646 1.0173 1.01593 1.01649 1.01571 1.01646 1.01533 1.01593 1.0161 1.01701 1.01571 1.01646 1.01701 1.0181 1.01646 1.0173 0.996451 0.99439 0.996324 0.993988 0.996324 0.993988 0.996425 0.993701 0.998512 0.996324 0.998874 0.996425 0.998356 0.996451 0.998512 0.996324 0.955738 0.957458 0.961691 0.963132 0.961691 0.963132 0.966482 0.967748 0.961392 0.961691 0.966129 0.966482 0.95556 0.955738 0.961392 0.961691 0.991552 0.990872 0.993988 0.993701 0.992295 0.991552 0.99439 0.993988 0.990173 0.989066 0.992295 0.991552 0.989066 0.987925 0.991552 0.990872 1.00179 1.00145 1.00189 1.00155 1.00165 1.00133 1.00179 1.00145 1.00133 1.00105 1.00145 1.00116 1.00145 1.00116 1.00155 1.00124 0.982483 0.980346 0.985133 0.983397 0.985133 0.983397 0.987925 0.98667 1.01149 1.01135 1.01187 1.01172 1.01164 1.01149 1.01204 1.01187 1.01125 1.01111 1.01164 1.01149 1.01111 1.01098 1.01149 1.01135 1.00937 1.00919 1.00928 1.00908 1.00963 1.00937 1.00955 1.00928 1.00967 1.00943 1.00963 1.00937 1.00943 1.00925 1.00937 1.00919 0.963349 0.962376 0.968459 0.967072 0.956781 0.956639 0.963349 0.962376 1.00172 1.00132 1.00127 1.00093 1.00132 1.001 1.00093 1.00067 1.00093 1.00067 1.00046 1.00027 1.00127 1.00093 1.00072 1.00046 0.966241 0.961235 0.971089 0.96642 0.971089 0.96642 0.974755 0.970573 0.976147 0.971089 0.978965 0.974755 1.0108 1.01039 1.0109 1.01044 1.0112 1.0108 1.01135 1.0109 1.01105 1.01068 1.0112 1.0108 1.01068 1.01032 1.0108 1.01039 1.01744 1.01641 1.01751 1.01648 1.01641 1.01558 1.01648 1.01566 1.01648 1.01566 1.01634 1.01555 1.01751 1.01648 1.01736 1.01634 0.996667 0.996333 0.997172 0.996891 0.99708 0.996667 0.997523 0.997172 0.996565 0.996079 0.99708 0.996667 0.996079 0.99568 0.996667 0.996333 0.99568 0.995317 0.996333 0.996029 0.995317 0.995066 0.996029 0.995825 0.996029 0.995825 0.996637 0.996471 0.996333 0.996029 0.996891 0.996637 1.01277 1.0124 1.01321 1.01282 1.01228 1.01194 1.01277 1.0124 1.01194 1.01164 1.0124 1.01206 1.0124 1.01206 1.01282 1.01247 0.996565 0.996023 0.996079 0.995456 0.996023 0.995399 0.995456 0.994734 0.995456 0.994734 0.994986 0.994176 0.996079 0.995456 0.99568 0.994986 1.00051 0.999136 1.00052 0.99881 1.00189 1.00051 1.0023 1.00052 1.00164 1.00053 1.00189 1.00051 1.00053 0.999409 1.00051 0.999136 1.00393 1.00393 1.0045 1.00441 1.00393 1.00392 1.00441 1.00431 1.00441 1.00431 1.00486 1.00468 1.0045 1.00441 1.00507 1.00486 1.00141 1.0011 1.00108 1.00079 1.00164 1.00141 1.0013 1.00108 1.00203 1.0018 1.00164 1.00141 1.0018 1.00149 1.00141 1.0011 1.01742 1.01547 1.01786 1.01553 1.01547 1.01369 1.01553 1.01342 1.01553 1.01342 1.01535 1.01284 1.01786 1.01553 1.01817 1.01535 1.00197 1.0015 1.00169 1.00128 1.00169 1.00128 1.00132 1.001 1.00219 1.00169 1.00172 1.00132 1.00254 1.00197 1.00219 1.00169 0.999916 0.999867 0.999908 0.999852 0.999931 0.999894 0.999916 0.999867 0.999894 0.99969 0.999867 0.99971 0.999867 0.99971 0.999852 0.999757 1.0109 1.01104 1.00769 1.00707 1.01104 1.01099 1.00707 1.00598 1.00707 1.00598 1.00311 1.00081 1.00769 1.00707 1.00458 1.00311 1.00551 1.0049 1.00631 1.0057 1.00483 1.00425 1.00551 1.0049 1.00425 1.00356 1.0049 1.00415 1.0049 1.00415 1.0057 1.0049 0.99768 0.997084 0.997211 0.996643 0.998076 0.997477 0.99768 0.997084 0.997477 0.996833 0.997084 0.996461 0.997084 0.996461 0.996643 0.996072 0.97648 0.975357 0.971269 0.970578 0.981365 0.980069 0.97648 0.975357 0.980069 0.978965 0.975357 0.974755 0.975357 0.974755 0.970578 0.970573 0.995603 0.995065 0.99778 0.997108 0.99778 0.997108 0.999522 0.998758 0.998892 0.99778 1.00069 0.999522 0.99664 0.995603 0.998892 0.99778 1.00408 1.00415 1.0035 1.0035 1.0035 1.0035 1.00295 1.00291 1.0035 1.0035 1.00298 1.00295 1.00403 1.00408 1.0035 1.0035 1.01094 1.01105 1.01127 1.0114 1.01127 1.0114 1.01159 1.01174 1.01116 1.01127 1.01146 1.01159 1.01084 1.01094 1.01116 1.01127 1.0102 1.01037 1.00978 1.00998 1.00996 1.0102 1.00953 1.00978 1.01046 1.01068 1.00996 1.0102 1.01068 1.01083 1.0102 1.01037 1.01097 1.01049 1.0117 1.01126 1.01033 1.00984 1.01097 1.01049 1.00984 1.00926 1.01049 1.00989 1.01049 1.00989 1.01126 1.01065 0.992584 0.993528 0.993398 0.994144 0.993398 0.994144 0.994127 0.994724 0.992707 0.993398 0.993568 0.994127 0.991712 0.992584 0.992707 0.993398 0.999953 0.99978 0.999935 0.999754 0.999935 0.999754 0.999918 0.999732 0.999955 0.999935 0.999949 0.999918 0.999963 0.999953 0.999955 0.999935 1.01563 1.01724 1.01358 1.01449 1.01358 1.01449 1.01142 1.01174 1.0128 1.01358 1.01108 1.01142 1.01437 1.01563 1.0128 1.01358 1.01311 1.01341 1.01334 1.01371 1.00149 1.0011 1.0011 1.00075 1.0011 1.00061 1.00075 1.0003 1.00075 1.0003 1.00048 1.00008 1.0011 1.00075 1.00079 1.00048 1.02376 1.02568 1.02295 1.0248 1.02295 1.0248 1.02191 1.02381 1.02143 1.02295 1.02039 1.02191 1.02215 1.02376 1.02143 1.02295 1.01075 1.01086 1.01044 1.01053 1.01086 1.01098 1.01053 1.01062 1.01053 1.01062 1.01022 1.01028 1.01044 1.01053 1.01016 1.01022 1.00802 1.0075 1.00784 1.00731 1.00824 1.00771 1.00802 1.0075 1.00771 1.00716 1.0075 1.00695 1.0075 1.00695 1.00731 1.00677 1.01084 1.00999 1.01041 1.00962 1.01131 1.01041 1.01084 1.00999 1.01041 1.00944 1.00999 1.0091 1.00999 1.0091 1.00962 1.00878 1.00905 1.00855 1.00908 1.00847 1.00899 1.00862 1.00905 1.00855 1.00862 1.00824 1.00855 1.00802 1.00855 1.00802 1.00847 1.00784 0.990413 0.990595 0.99173 0.991872 0.99173 0.991872 0.992837 0.992948 0.991784 0.99173 0.992885 0.992837 0.990477 0.990413 0.991784 0.99173 1.00614 1.00596 1.00469 1.00436 1.00622 1.00614 1.00491 1.00469 1.00757 1.00763 1.00622 1.00614 1.00763 1.00763 1.00614 1.00596 1.00738 1.00678 1.00716 1.00658 1.00763 1.00699 1.00738 1.00678 1.00699 1.00633 1.00678 1.00616 1.00678 1.00616 1.00658 1.006 1.0114 1.01155 1.01174 1.01189 1.01105 1.0112 1.0114 1.01155 1.0112 1.01135 1.01155 1.0117 1.01155 1.0117 1.01189 1.01204 1.00776 1.00796 1.00729 1.00746 1.00764 1.00776 1.00719 1.00729 1.00804 1.00818 1.00764 1.00776 1.00818 1.00842 1.00776 1.00796 1.01098 1.01117 1.01046 1.01068 1.01157 1.01173 1.01098 1.01117 1.01173 1.01183 1.01117 1.0113 1.01117 1.0113 1.01068 1.01083 1.00916 1.00953 1.00896 1.00939 1.00891 1.00916 1.00869 1.00896 1.00908 1.0093 1.00891 1.00916 1.0093 1.00961 1.00916 1.00953 1.00639 1.00651 1.00688 1.00702 1.00651 1.00666 1.00702 1.00718 1.00702 1.00718 1.0075 1.00768 1.00688 1.00702 1.00736 1.0075 1.02215 1.02375 1.02247 1.02386 1.02375 1.02562 1.02386 1.02546 1.02386 1.02546 1.02376 1.02497 1.02247 1.02386 1.02265 1.02376 0.990457 0.989887 0.991626 0.991129 0.991229 0.990457 0.992303 0.991626 0.989972 0.989087 0.991229 0.990457 0.989087 0.988428 0.990457 0.989887 1.01569 1.01682 1.01602 1.01728 1.01474 1.01569 1.01499 1.01602 1.01424 1.01512 1.01474 1.01569 1.01512 1.01617 1.01569 1.01682 0.98781 0.98937 0.988428 0.989887 0.987454 0.989095 0.98781 0.98937 0.989095 0.990477 0.98937 0.990694 0.98937 0.990694 0.989887 0.991129 1.01234 1.01302 1.01239 1.013 1.01173 1.01234 1.01183 1.01239 1.01157 1.01222 1.01173 1.01234 1.01222 1.01296 1.01234 1.01302 0.995317 0.994561 0.995066 0.994261 0.99568 0.994986 0.995317 0.994561 0.994986 0.994176 0.994561 0.993675 0.994561 0.993675 0.994261 0.993315 1.01189 1.01204 1.01222 1.01238 1.01222 1.01238 1.01253 1.01271 1.01206 1.01222 1.01235 1.01253 1.01174 1.01189 1.01206 1.01222 1.00507 1.00501 1.00438 1.00439 1.00578 1.00564 1.00507 1.00501 1.00564 1.00551 1.00501 1.00494 1.00501 1.00494 1.00439 1.00438 1.0125 1.01284 1.01238 1.01271 1.01218 1.0125 1.01204 1.01238 1.01231 1.01262 1.01218 1.0125 1.01262 1.01295 1.0125 1.01284 1.00578 1.00644 1.00564 1.00626 1.00644 1.0071 1.00626 1.00687 1.00626 1.00687 1.0061 1.00666 1.00564 1.00626 1.00551 1.0061 0.998403 0.998435 0.997979 0.998027 0.997979 0.998027 0.997507 0.997574 0.997992 0.997979 0.997517 0.997507 0.99842 0.998403 0.997992 0.997979 1.01376 1.01416 1.01341 1.01371 1.01411 1.01465 1.01376 1.01416 1.01465 1.01509 1.01416 1.0145 1.00985 1.00974 1.0109 1.01092 1.00888 1.00866 1.00985 1.00974 1.00866 1.0083 1.00974 1.0095 1