# vtk DataFile Version 3.0
#This file was generated by the deal.II library on 2020/11/23 at 12:10:59
ASCII
DATASET UNSTRUCTURED_GRID

POINTS 13888 double
-13.8533 10.5081 0
-14.9532 10.4145 0
-13.8388 9.35329 0
-14.8872 9.24174 0
-12.7534 10.6016 0
-13.8533 10.5081 0
-12.7904 9.46484 0
-13.8388 9.35329 0
-12.7163 11.7384 0
-13.8678 11.6628 0
-12.7534 10.6016 0
-13.8533 10.5081 0
-13.8678 11.6628 0
-15.0192 11.5873 0
-13.8533 10.5081 0
-14.9532 10.4145 0
-0.890751 1.70037 0
-1.21913 1.68853 0
-0.927988 1.37265 0
-1.24941 1.30936 0
-0.562368 1.71222 0
-0.890751 1.70037 0
-0.606569 1.43593 0
-0.927988 1.37265 0
-0.518167 1.9885 0
-0.853513 2.0281 0
-0.562368 1.71222 0
-0.890751 1.70037 0
-0.853513 2.0281 0
-1.18886 2.0677 0
-0.890751 1.70037 0
-1.21913 1.68853 0
6.18761 -7.41969 0
5.68679 -8.05868 0
6.93245 -7.92212 0
6.48377 -8.63461 0
6.68843 -6.78069 0
6.18761 -7.41969 0
7.38113 -7.20964 0
6.93245 -7.92212 0
5.99574 -6.35175 0
5.44277 -6.91725 0
6.68843 -6.78069 0
6.18761 -7.41969 0
5.44277 -6.91725 0
4.8898 -7.48276 0
6.18761 -7.41969 0
5.68679 -8.05868 0
-16.52 -16.7928 0
-16.6158 -18.2087 0
-15.1257 -16.9192 0
-15.2028 -18.2792 0
-16.4243 -15.3769 0
-16.52 -16.7928 0
-15.0487 -15.5592 0
-15.1257 -16.9192 0
-17.7999 -15.1946 0
-17.9143 -16.6664 0
-16.4243 -15.3769 0
-16.52 -16.7928 0
-17.9143 -16.6664 0
-18.0287 -18.1381 0
-16.52 -16.7928 0
-16.6158 -18.2087 0
0.195599 -5.11785 0
0.4401 -4.81589 0
-0.135808 -4.865 0
-0.037812 -4.60222 0
-0.0489017 -5.4198 0
0.195599 -5.11785 0
-0.233805 -5.12777 0
-0.135808 -4.865 0
0.136002 -5.71183 0
0.527007 -5.3707 0
-0.0489017 -5.4198 0
0.195599 -5.11785 0
0.527007 -5.3707 0
0.918012 -5.02957 0
0.195599 -5.11785 0
0.4401 -4.81589 0
-6.6434 -12.9082 0
-6.46182 -11.8249 0
-7.65596 -12.5808 0
-7.46659 -11.3517 0
-6.82499 -13.9915 0
-6.6434 -12.9082 0
-7.84532 -13.81 0
-7.65596 -12.5808 0
-5.80466 -14.173 0
-5.63085 -13.2356 0
-6.82499 -13.9915 0
-6.6434 -12.9082 0
-5.63085 -13.2356 0
-5.45704 -12.2981 0
-6.6434 -12.9082 0
-6.46182 -11.8249 0
1.77752 3.28856 0
1.493 3.48462 0
1.54945 3.01164 0
1.14319 3.16353 0
2.06204 3.09251 0
1.77752 3.28856 0
1.95572 2.85975 0
1.54945 3.01164 0
2.16835 3.32526 0
2.00558 3.56548 0
2.06204 3.09251 0
1.77752 3.28856 0
2.00558 3.56548 0
1.84282 3.8057 0
1.77752 3.28856 0
1.493 3.48462 0
4.50551 -8.2033 0
5.23543 -8.76841 0
4.8898 -7.48276 0
5.68679 -8.05868 0
4.12122 -8.92384 0
4.78406 -9.47814 0
4.50551 -8.2033 0
5.23543 -8.76841 0
4.78406 -9.47814 0
5.44691 -10.0324 0
5.23543 -8.76841 0
5.96534 -9.33352 0
5.23543 -8.76841 0
5.96534 -9.33352 0
5.68679 -8.05868 0
6.48377 -8.63461 0
0.284418 -2.16074 0
0.306681 -1.85835 0
-0.00484861 -2.10511 0
0.046393 -1.8111 0
-0.00484861 -2.10511 0
0.046393 -1.8111 0
-0.294116 -2.04947 0
-0.213895 -1.76386 0
-0.0560902 -2.39911 0
-0.00484861 -2.10511 0
-0.374337 -2.33507 0
-0.294116 -2.04947 0
0.262156 -2.46314 0
0.284418 -2.16074 0
-0.0560902 -2.39911 0
-0.00484861 -2.10511 0
6.37274 -3.66877 0
6.45585 -3.01262 0
5.71068 -3.5109 0
5.7814 -2.90259 0
7.03481 -3.82664 0
7.1303 -3.12266 0
6.37274 -3.66877 0
6.45585 -3.01262 0
7.1303 -3.12266 0
7.22579 -2.41868 0
6.45585 -3.01262 0
6.53896 -2.35648 0
6.45585 -3.01262 0
6.53896 -2.35648 0
5.7814 -2.90259 0
5.85212 -2.29428 0
-7.09602 -2.18563 0
-6.53929 -2.09015 0
-7.19023 -1.60862 0
-6.63537 -1.55166 0
-7.65275 -2.2811 0
-7.09602 -2.18563 0
-7.7451 -1.66558 0
-7.19023 -1.60862 0
-7.5604 -2.89663 0
-7.00181 -2.76263 0
-7.65275 -2.2811 0
-7.09602 -2.18563 0
-7.00181 -2.76263 0
-6.44321 -2.62864 0
-7.09602 -2.18563 0
-6.53929 -2.09015 0
-2.99863 -15.6354 0
-2.93376 -14.6426 0
-3.9936 -15.5216 0
-3.88612 -14.5339 0
-3.06349 -16.6282 0
-2.99863 -15.6354 0
-4.10108 -16.5094 0
-3.9936 -15.5216 0
-2.02591 -16.7471 0
-2.00365 -15.7492 0
-3.06349 -16.6282 0
-2.99863 -15.6354 0
-2.00365 -15.7492 0
-1.98139 -14.7512 0
-2.99863 -15.6354 0
-2.93376 -14.6426 0
2.66291 11.5461 0
2.11456 12.0747 0
2.37894 11.0136 0
1.69665 11.3983 0
2.94689 12.0785 0
2.53246 12.7511 0
2.66291 11.5461 0
2.11456 12.0747 0
2.53246 12.7511 0
2.11803 13.4236 0
2.11456 12.0747 0
1.5662 12.6033 0
2.11456 12.0747 0
1.5662 12.6033 0
1.69665 11.3983 0
1.01437 11.7831 0
-0.451771 -2.6666 0
-0.374337 -2.33507 0
-0.821977 -2.5666 0
-0.670733 -2.2037 0
-0.821977 -2.5666 0
-0.670733 -2.2037 0
-1.19218 -2.46661 0
-0.967129 -2.07232 0
-0.97322 -2.92951 0
-0.821977 -2.5666 0
-1.41724 -2.86089 0
-1.19218 -2.46661 0
-0.529205 -2.99812 0
-0.451771 -2.6666 0
-0.97322 -2.92951 0
-0.821977 -2.5666 0
-17.7367 5.55532 0
-17.596 4.42597 0
-16.639 5.64414 0
-16.4858 4.51282 0
-17.8774 6.68468 0
-17.7367 5.55532 0
-16.7921 6.77546 0
-16.639 5.64414 0
-18.9626 6.5939 0
-18.8343 5.4665 0
-17.8774 6.68468 0
-17.7367 5.55532 0
-18.8343 5.4665 0
-18.7061 4.33911 0
-17.7367 5.55532 0
-17.596 4.42597 0
5.13185 -2.80929 0
5.13981 -2.16719 0
4.48229 -2.71598 0
4.4275 -2.04011 0
5.12388 -3.45138 0
5.13185 -2.80929 0
4.53709 -3.39185 0
4.48229 -2.71598 0
5.71068 -3.5109 0
5.7814 -2.90259 0
5.12388 -3.45138 0
5.13185 -2.80929 0
5.7814 -2.90259 0
5.85212 -2.29428 0
5.13185 -2.80929 0
5.13981 -2.16719 0
0.500602 -6.26192 0
0.865203 -6.812 0
0.83358 -5.86282 0
1.14015 -6.35495 0
0.83358 -5.86282 0
1.14015 -6.35495 0
1.16656 -5.46373 0
1.4151 -5.8979 0
0.527007 -5.3707 0
0.83358 -5.86282 0
0.918012 -5.02957 0
1.16656 -5.46373 0
0.136002 -5.71183 0
0.500602 -6.26192 0
0.527007 -5.3707 0
0.83358 -5.86282 0
-6.09556 1.34295 0
-6.73605 1.12671 0
-6.00943 0.866205 0
-6.50466 0.715526 0
-6.73605 1.12671 0
-7.37654 0.910466 0
-6.50466 0.715526 0
-6.99989 0.564847 0
-6.50466 0.715526 0
-6.99989 0.564847 0
-6.27328 0.304345 0
-6.62325 0.219227 0
-6.00943 0.866205 0
-6.50466 0.715526 0
-5.9233 0.389462 0
-6.27328 0.304345 0
-3.23185 1.70549 0
-3.63982 1.77638 0
-3.31851 1.34753 0
-3.72226 1.37924 0
-3.14519 2.06345 0
-3.55738 2.17353 0
-3.23185 1.70549 0
-3.63982 1.77638 0
-3.55738 2.17353 0
-3.96957 2.28361 0
-3.63982 1.77638 0
-4.04779 1.84728 0
-3.63982 1.77638 0
-4.04779 1.84728 0
-3.72226 1.37924 0
-4.12602 1.41094 0
-8.83701 -10.1701 0
-8.95705 -9.01482 0
-9.98285 -10.0693 0
-9.99835 -8.8394 0
-8.71697 -11.3255 0
-8.83701 -10.1701 0
-9.96735 -11.2993 0
-9.98285 -10.0693 0
-7.46659 -11.3517 0
-7.69118 -10.271 0
-8.71697 -11.3255 0
-8.83701 -10.1701 0
-7.69118 -10.271 0
-7.91576 -9.19023 0
-8.83701 -10.1701 0
-8.95705 -9.01482 0
14.0701 -1.51277 0
12.942 -1.28102 0
13.8628 -2.55573 0
12.7814 -2.31155 0
13.8628 -2.55573 0
12.7814 -2.31155 0
13.6556 -3.59869 0
12.6208 -3.34207 0
14.9443 -2.79992 0
13.8628 -2.55573 0
14.6904 -3.85531 0
13.6556 -3.59869 0
15.1981 -1.74452 0
14.0701 -1.51277 0
14.9443 -2.79992 0
13.8628 -2.55573 0
0.216685 3.56829 0
-0.2011 3.775 0
-0.0428093 3.2299 0
-0.435607 3.38128 0
0.47618 3.90669 0
0.0334068 4.16872 0
0.216685 3.56829 0
-0.2011 3.775 0
0.0334068 4.16872 0
-0.409366 4.43075 0
-0.2011 3.775 0
-0.618886 3.98171 0
-0.2011 3.775 0
-0.618886 3.98171 0
-0.435607 3.38128 0
-0.828405 3.53267 0
2.59187 6.16225 0
2.10362 6.42806 0
2.30681 5.67978 0
1.82865 5.93949 0
3.08011 5.89645 0
2.59187 6.16225 0
2.78498 5.42006 0
2.30681 5.67978 0
3.37524 6.37284 0
2.87692 6.64473 0
3.08011 5.89645 0
2.59187 6.16225 0
2.87692 6.64473 0
2.3786 6.91662 0
2.59187 6.16225 0
2.10362 6.42806 0
1.20309 3.90882 0
0.809683 3.53511 0
1.493 3.48462 0
1.14319 3.16353 0
1.59649 4.28253 0
1.20309 3.90882 0
1.84282 3.8057 0
1.493 3.48462 0
1.35017 4.75935 0
0.913176 4.33302 0
1.59649 4.28253 0
1.20309 3.90882 0
0.913176 4.33302 0
0.47618 3.90669 0
1.20309 3.90882 0
0.809683 3.53511 0
-2.92812 1.6542 0
-2.97049 1.34575 0
-2.62439 1.60292 0
-2.62247 1.34397 0
-2.88575 1.96266 0
-2.92812 1.6542 0
-2.62631 1.86187 0
-2.62439 1.60292 0
-3.14519 2.06345 0
-3.23185 1.70549 0
-2.88575 1.96266 0
-2.92812 1.6542 0
-3.23185 1.70549 0
-3.31851 1.34753 0
-2.92812 1.6542 0
-2.97049 1.34575 0
6.76398 -9.92413 0
7.30183 -9.18428 0
5.96534 -9.33352 0
6.48377 -8.63461 0
6.22613 -10.664 0
6.76398 -9.92413 0
5.44691 -10.0324 0
5.96534 -9.33352 0
7.00535 -11.2955 0
7.56262 -10.5147 0
6.22613 -10.664 0
6.76398 -9.92413 0
7.56262 -10.5147 0
8.11989 -9.73396 0
6.76398 -9.92413 0
7.30183 -9.18428 0
-2.69428 -11.1482 0
-3.49425 -11.0361 0
-2.75631 -11.9838 0
-3.59383 -11.8717 0
-2.75631 -11.9838 0
-3.59383 -11.8717 0
-2.81834 -12.8193 0
-3.69341 -12.7073 0
-1.91879 -12.0958 0
-2.75631 -11.9838 0
-1.94327 -12.9313 0
-2.81834 -12.8193 0
-1.89431 -11.2604 0
-2.69428 -11.1482 0
-1.91879 -12.0958 0
-2.75631 -11.9838 0
24.5655 -0.944141 0
24.2416 0.771228 0
22.7689 -1.11514 0
22.237 0.657603 0
24.8894 -2.65951 0
24.5655 -0.944141 0
23.3007 -2.88788 0
22.7689 -1.11514 0
26.4781 -2.43114 0
26.3621 -0.773145 0
24.8894 -2.65951 0
24.5655 -0.944141 0
26.3621 -0.773145 0
26.2462 0.884852 0
24.5655 -0.944141 0
24.2416 0.771228 0
24.473 4.48394 0
22.6752 4.47964 0
24.3573 2.62758 0
22.4561 2.56862 0
24.3573 2.62758 0
22.4561 2.56862 0
24.2416 0.771228 0
22.237 0.657603 0
26.2585 2.68654 0
24.3573 2.62758 0
26.2462 0.884852 0
24.2416 0.771228 0
26.2708 4.48823 0
24.473 4.48394 0
26.2585 2.68654 0
24.3573 2.62758 0
-6.8542 7.83518 0
-7.44002 7.11541 0
-6.17373 7.30902 0
-6.79489 6.5277 0
-7.53466 8.36135 0
-8.08515 7.70312 0
-6.8542 7.83518 0
-7.44002 7.11541 0
-8.08515 7.70312 0
-8.63564 7.0449 0
-7.44002 7.11541 0
-8.02585 6.39564 0
-7.44002 7.11541 0
-8.02585 6.39564 0
-6.79489 6.5277 0
-7.41606 5.74639 0
-5.77923 10.5665 0
-6.45007 11.1197 0
-6.33474 9.84893 0
-7.14514 10.5844 0
-5.22372 11.2841 0
-5.755 11.655 0
-5.77923 10.5665 0
-6.45007 11.1197 0
-5.755 11.655 0
-6.28628 12.0259 0
-6.45007 11.1197 0
-7.12091 11.6728 0
-6.45007 11.1197 0
-7.12091 11.6728 0
-7.14514 10.5844 0
-7.95554 11.3198 0
11.7316 8.01612 0
10.5849 8.05811 0
11.5847 6.88044 0
10.5094 7.09109 0
12.8782 7.97412 0
11.7316 8.01612 0
12.6599 6.6698 0
11.5847 6.88044 0
13.0965 9.27845 0
11.8785 9.15179 0
12.8782 7.97412 0
11.7316 8.01612 0
11.8785 9.15179 0
10.6605 9.02512 0
11.7316 8.01612 0
10.5849 8.05811 0
4.75811 5.06836 0
4.54153 4.45265 0
5.41186 4.9162 0
5.29311 4.3102 0
4.9747 5.68406 0
[...]
POINT_DATA 13888
SCALARS solution_0 double 1
LOOKUP_TABLE default
0.999694 0.999642 0.999259 0.999266 0.999798 0.999694 0.999292 0.999259 1.00024 1.00008 0.999798 0.999694 1.00008 0.999977 0.999694 0.999642 0.977445 0.965513 0.955323 0.942033 0.996243 0.977445 0.980427 0.955323 1.00591 0.991132 0.996243 0.977445 0.991132 0.981146 0.977445 0.965513 1.02049 1.01958 1.01913 1.01831 1.02115 1.02049 1.01976 1.01913 1.02286 1.02215 1.02115 1.02049 1.02215 1.02109 1.02049 1.01958 1.00075 1.00087 1.00099 1.00112 1.0006 1.00075 1.00082 1.00099 1.00027 1.0004 1.0006 1.00075 1.0004 1.0005 1.00075 1.00087 1.01967 1.02282 1.01772 1.01933 1.01706 1.01967 1.01631 1.01772 1.01756 1.02102 1.01706 1.01967 1.02102 1.02512 1.01967 1.02282 1.00309 1.00278 1.00233 1.00184 1.00328 1.00309 1.00264 1.00233 1.00399 1.00392 1.00328 1.00309 1.00392 1.00378 1.00309 1.00278 1.04895 1.04423 1.05328 1.04653 1.05285 1.04895 1.05771 1.05328 1.04885 1.04511 1.05285 1.04895 1.04511 1.04134 1.04895 1.04423 1.01947 1.01836 1.02109 1.01958 1.01787 1.01709 1.01947 1.01836 1.01709 1.01636 1.01836 1.01738 1.01836 1.01738 1.01958 1.01831 1.04853 1.05908 1.03482 1.0428 1.03482 1.0428 1.01888 1.02334 1.02966 1.03482 1.01635 1.01888 1.0413 1.04853 1.02966 1.03482 1.02715 1.02469 1.0301 1.02839 1.02496 1.02159 1.02715 1.02469 1.02159 1.03336 1.02469 1.03322 1.02469 1.03322 1.02839 1.03606 0.987322 0.98559 0.986545 0.984711 0.988801 0.987322 0.988111 0.986545 0.989723 0.988356 0.988801 0.987322 0.988356 0.986763 0.987322 0.98559 1.00606 1.0062 1.00536 1.00545 1.00592 1.00606 1.00527 1.00536 1.00657 1.00676 1.00592 1.00606 1.00676 1.00696 1.00606 1.0062 1.01297 1.01199 1.01331 1.01222 1.01265 1.01173 1.01297 1.01199 1.01173 1.01091 1.01199 1.01107 1.01199 1.01107 1.01222 1.01115 1.01495 1.01635 1.00237 1.00209 1.00237 1.00209 0.991266 0.987904 1.00278 1.00237 0.993386 0.991266 1.01377 1.01495 1.00278 1.00237 0.998781 0.998536 0.998511 0.998208 0.99903 0.998781 0.998819 0.998511 0.999057 0.998917 0.99903 0.998781 0.998917 0.998786 0.998781 0.998536 1.03206 1.04546 1.03726 1.0563 1.03342 1.03206 1.03724 1.03726 1.0301 1.02839 1.03342 1.03206 1.02839 1.03606 1.03206 1.04546 1.01801 1.01796 1.0208 1.02028 1.0208 1.02028 1.02416 1.02311 1.02102 1.0208 1.02512 1.02416 1.01756 1.01801 1.02102 1.0208 0.982244 0.984358 0.980922 0.982989 0.984358 0.986256 0.982989 0.984746 0.982989 0.984746 0.981623 0.983127 0.980922 0.982989 0.979917 0.981623 0.966682 0.970494 0.962809 0.967216 0.971162 0.974325 0.966682 0.970494 0.974325 0.977092 0.970494 0.973759 0.970494 0.973759 0.967216 0.970955 1.00039 0.999435 0.999957 0.999078 1.00115 1.00039 1.00066 0.999957 1.00184 1.00101 1.00115 1.00039 1.00101 0.999996 1.00039 0.999435 0.932292 0.886058 1.03499 1.03517 1.03499 1.03517 1.01041 1.01279 1.03283 1.03499 1.00897 1.01041 0.966547 0.932292 1.03283 1.03499 1.02762 1.01983 1.02488 1.0164 1.02874 1.02166 1.02762 1.01983 1.02166 1.0158 1.01983 1.01348 1.01983 1.01348 1.0164 1.00952 1.02484 1.02282 1.02677 1.02427 1.02659 1.02484 1.02894 1.02677 1.02463 1.0232 1.02659 1.02484 1.0232 1.02152 1.02484 1.02282 1.03634 1.03681 1.04423 1.04653 1.03472 1.03634 1.04134 1.04423 1.02937 1.02981 1.03472 1.03634 1.02981 1.02874 1.03634 1.03681 0.963471 0.95876 0.959926 0.95437 0.968421 0.963471 0.965386 0.959926 0.971162 0.966682 0.968421 0.963471 0.966682 0.962809 0.963471 0.95876 1.01646 1.01724 1.01738 1.01831 1.01559 1.01646 1.01636 1.01738 1.01491 1.01566 1.01559 1.01646 1.01566 1.01633 1.01646 1.01724 1.00654 1.00546 1.0065 1.00552 1.0065 1.00552 1.00642 1.00552 1.00749 1.0065 1.00733 1.00642 1.00765 1.00654 1.00749 1.0065 0.845197 0.814682 0.8545 0.799453 0.996638 0.845197 1.01358 0.8545 0.979009 0.836213 0.996638 0.845197 0.836213 0.827277 0.845197 0.814682 1.02248 1.02322 0.999082 0.999526 0.999082 0.999526 0.814682 0.799453 0.999479 0.999082 0.827277 0.814682 1.02199 1.02248 0.999479 0.999082 0.999036 0.997726 0.998688 0.996944 0.999325 0.998337 0.999036 0.997726 0.998337 0.997439 0.997726 0.996551 0.997726 0.996551 0.996944 0.995416 1.00265 1.00241 1.00162 1.00157 1.0036 1.00328 1.00265 1.00241 1.00328 1.003 1.00241 1.00224 1.00241 1.00224 1.00157 1.00154 1.01565 1.01636 1.01622 1.01693 1.01503 1.01565 1.01564 1.01622 1.01449 1.01507 1.01503 1.01565 1.01507 1.01574 1.01565 1.01636 1.02869 1.03188 1.02756 1.02976 1.02613 1.02869 1.02561 1.02756 1.02632 1.02932 1.02613 1.02869 1.02932 1.03325 1.02869 1.03188 0.0335792 0.0737125 0.109805 -0.0561005 0.0678526 0.0335792 0.287374 0.109805 0.267672 0.376468 0.0678526 0.0335792 0.376468 0.533853 0.0335792 0.0737125 1.00793 1.00767 1.00856 1.0084 1.00767 1.00727 1.0084 1.00812 1.0084 1.00812 1.00922 1.00908 1.00856 1.0084 1.0093 1.00922 1.00167 1.00105 1.0022 1.00154 1.00216 1.00167 1.00268 1.0022 1.00174 1.00127 1.00216 1.00167 1.00127 1.0007 1.00167 1.00105 1.01146 1.01179 1.01198 1.01242 1.01104 1.01146 1.01151 1.01198 1.01062 1.011 1.01104 1.01146 1.011 1.01127 1.01146 1.01179 0.982954 0.980829 0.980852 0.978231 0.98479 0.982954 0.983067 0.980852 0.986747 0.985302 0.98479 0.982954 0.985302 0.983676 0.982954 0.980829 1.01395 1.01365 1.01508 1.01471 1.01297 1.01269 1.01395 1.01365 1.01269 1.01242 1.01365 1.01335 1.01365 1.01335 1.01471 1.01428 1.00977 1.00981 1.00952 1.00956 1.00952 1.00956 1.00933 1.00938 1.00948 1.00952 1.00929 1.00933 1.00974 1.00977 1.00948 1.00952 0.996554 0.997229 0.996019 0.996798 0.995938 0.996554 0.995302 0.996019 0.996493 0.997023 0.995938 0.996554 0.997023 0.997609 0.996554 0.997229 1.04281 1.04051 1.03857 1.03597 1.04746 1.04562 1.04281 1.04051 1.04562 1.04275 1.04051 1.03774 1.04051 1.03774 1.03597 1.03325 1.01846 1.01976 1.01794 1.01913 1.01794 1.01913 1.01724 1.01831 1.01694 1.01794 1.01633 1.01724 1.0174 1.01846 1.01694 1.01794 1.02981 1.02334 1.02874 1.02166 1.02937 1.02378 1.02981 1.02334 1.02378 1.01855 1.02334 1.01771 1.02334 1.01771 1.02166 1.0158 1.00255 1.0043 1.00244 1.00384 1.00094 1.00255 1.00115 1.00244 1.00083 1.00267 1.00094 1.00255 1.00267 1.00462 1.00255 1.0043 0.972217 0.861705 1.05007 1.02933 0.65041 0.504501 0.972217 0.861705 0.504501 0.455507 0.861705 0.7287 0.861705 0.7287 1.02933 0.984374 1.001 1.00174 0.99962 1.00007 1.00174 1.00228 1.00007 1.00044 1.00007 1.00044 0.998429 0.998688 0.99962 1.00007 0.998203 0.998429 1.03268 1.0355 1.03068 1.03338 1.0355 1.03857 1.03338 1.03597 1.03338 1.03597 1.03146 1.03325 1.03068 1.03338 1.02894 1.03146 1.02597 1.0266 1.02839 1.02943 1.02403 1.02435 1.02597 1.0266 1.02435 1.02496 1.0266 1.02715 1.0266 1.02715 1.02943 1.0301 0.998314 0.997927 0.998536 0.998208 0.998649 0.998314 0.998786 0.998536 0.998523 0.998128 0.998649 0.998314 0.998128 0.997685 0.998314 0.997927 0.997559 0.99945 0.998784 1.00008 0.996661 0.998979 0.997559 0.99945 0.998979 1.00083 0.99945 1.00094 0.99945 1.00094 1.00008 1.00115 1.01127 1.01063 1.01109 1.01043 1.01063 1.01007 1.01043 1.00985 1.01043 1.00985 1.01026 1.00966 1.01109 1.01043 1.01091 1.01026 0.915823 0.943656 0.905108 0.937928 0.943656 0.975624 0.937928 0.970979 0.937928 0.970979 0.934182 0.965589 0.905108 0.937928 0.896185 0.934182 1.03068 1.02894 1.02895 1.02677 1.02895 1.02677 1.02658 1.02427 1.03152 1.02895 1.02937 1.02658 1.03268 1.03068 1.03152 1.02895 0.908925 0.743839 0.975032 0.827129 0.975032 0.827129 1.00507 0.903228 1.02411 0.975032 1.02514 1.00507 0.996845 0.908925 1.02411 0.975032 0.998135 0.993369 0.993728 0.98988 1.0054 0.998135 0.999286 0.993728 1.00952 1.00135 1.0054 0.998135 1.00135 0.995684 0.998135 0.993369 1.0169 1.01603 1.01799 1.01703 1.01759 1.0169 1.01877 1.01799 1.01658 1.01597 1.01759 1.0169 1.01597 1.01517 1.0169 1.01603 1.01149 1.01189 1.01178 1.01173 1.01178 1.01173 1.0115 1.01138 1.01146 1.01178 1.01178 1.0115 1.01111 1.01149 1.01146 1.01178 1.02047 1.02273 1.01321 1.01377 1.01878 1.02047 1.01275 1.01321 1.02411 1.02697 1.01878 1.02047 1.02697 1.03076 1.02047 1.02273 1.00174 1.00275 1.00228 1.00357 1.001 1.0017 1.00174 1.00275 1.0017 1.00262 1.00275 1.00412 1.00275 1.00412 1.00357 1.00531 1.02656 0.965459 1.01786 0.890498 1.01786 0.890498 0.999526 0.799453 1.02005 1.01786 1.02322 0.999526 1.01669 1.02656 1.02005 1.01786 1.04689 1.04572 1.05354 1.05085 1.05354 1.05085 1.06166 1.05667 1.05568 1.05354 1.06676 1.06166 1.04696 1.04689 1.05568 1.05354 1.02361 1.02178 1.02403 1.02212 1.02286 1.02115 1.02361 1.02178 1.02115 1.01976 1.02178 1.02029 1.02178 1.02029 1.02212 1.0206 1.01082 1.02377 1.00955 1.02103 1.01288 1.02345 1.01082 1.02377 1.02345 0.979009 1.02377 0.996638 1.02377 0.996638 1.02103 1.01358 1.0005 1.00058 1.00087 1.00097 1.00058 1.00064 1.00097 1.00104 1.00097 1.00104 1.00123 1.00131 1.00087 1.00097 1.00112 1.00123 0.962605 0.939856 0.934833 0.918508 0.980427 0.955323 0.962605 0.939856 0.955323 0.942033 0.939856 0.929116 0.939856 0.929116 0.918508 0.910536 1.00741 1.00752 1.00693 1.00703 1.00752 1.00769 1.00703 1.00718 1.00703 1.00718 1.0065 1.00664 1.00693 1.00703 1.00641 1.0065 1.01448 1.01255 1.01399 1.01204 1.01464 1.01278 1.01448 1.01255 1.01278 1.01108 1.01255 1.01082 1.01255 1.01082 1.01204 1.01033 1.00864 1.00894 1.00886 1.00922 1.00886 1.00922 1.00922 1.00966 1.00843 1.00886 1.00868 1.00922 1.00828 1.00864 1.00843 1.00886 0.952898 0.970504 0.95136 0.968469 0.970504 0.987904 0.968469 0.985602 0.968469 0.985602 0.968262 0.983767 0.95136 0.968469 0.952903 0.968262 1.01365 1.01405 1.01284 1.01313 1.0146 1.01512 1.01365 1.01405 1.01512 1.01538 1.01405 1.01426 1.01405 1.01426 1.01313 1.0133 0.947062 0.937409 0.948135 0.937509 0.95449 0.947062 0.956159 0.948135 0.954271 0.948136 0.95449 0.947062 0.948136 0.940598 0.947062 0.937409 1.01396 1.01496 1.01259 1.01334 1.01259 1.01334 1.01109 1.01156 1.01193 1.01259 1.01064 1.01109 1.0131 1.01396 1.01193 1.01259 1.02103 1.01358 1.01496 1.03054 1.01496 1.03054 1.00863 1.0326 1.0101 1.01496 1.01229 1.00863 1.00955 1.02103 1.0101 1.01496 1.01025 1.01026 1.01061 1.01068 1.00995 1.00991 1.01025 1.01026 1.00991 1.00982 1.01026 1.01023 1.01026 1.01023 1.01068 1.01073 1.02659 1.02894 1.02826 1.03146 1.02826 1.03146 1.02932 1.03325 1.02569 1.02826 1.02632 1.02932 1.02463 1.02659 1.02569 1.02826 1.0094 1.009 1.00905 1.00868 1.00988 1.0094 1.00948 1.00905 1.01021 1.0097 1.00988 1.0094 1.0097 1.00927 1.0094 1.009 1.03681 1.03506 1.04653 1.04391 1.02874 1.02762 1.03681 1.03506 1.02762 1.02488 1.03506 1.03144 1.03506 1.03144 1.04391 1.03884 1.00168 1.00115 1.00118 1.00066 1.00206 1.00168 1.00158 1.00118 1.00264 1.00233 1.00206 1.00168 1.00233 1.00184 1.00168 1.00115 0.984249 0.985848 0.991996 0.992182 0.982838 0.984249 0.993386 0.991996 0.97236 0.975726 0.982838 0.984249 0.975726 0.978538 0.984249 0.985848 1.04956 1.05869 1.04353 1.05147 1.04353 1.05147 1.03532 1.0413 1.03752 1.04353 1.03076 1.03532 1.04258 1.04956 1.03752 1.04353 0.9164 0.909841 0.927686 0.925324 0.927686 0.925324 0.937409 0.937509 0.93312 0.927686 0.940598 0.937409 0.924629 0.9164 0.93312 0.927686 0.997609 0.997963 0.9983 0.998525 0.997963 0.998274 0.998525 0.998735 0.998525 0.998735 0.99912 0.999202 0.9983 0.998525 0.999078 0.99912 0.311565 0.0339308 0.526505 0.187968 0.155293 -0.0645205 0.311565 0.0339308 -0.0645205 -0.128587 0.0339308 -0.0985921 0.0339308 -0.0985921 0.187968 -0.0240514 1.02273 1.02575 1.01377 1.01495 1.03076 1.03532 1.02273 1.02575 1.03532 1.0413 1.02575 1.02966 1.02575 1.02966 1.01495 1.01635 0.998203 0.998429 0.996196 0.996538 0.998429 0.998688 0.996538 0.996944 0.996538 0.996944 0.994768 0.995416 0.996196 0.996538 0.994128 0.994768 0.998337 0.998622 0.997439 0.997838 0.999325 0.999459 0.998337 0.998622 0.999459 0.999588 0.998622 0.998872 0.998622 0.998872 0.997838 0.998182 1.05328 1.04653 1.0622 1.05644 1.0622 1.05644 1.07459 1.07172 1.06478 1.0622 1.07341 1.07459 1.05771 1.05328 1.06478 1.0622 1.00818 1.00848 1.00748 1.00773 1.00748 1.00773 1.00676 1.00696 1.00724 1.00748 1.00657 1.00676 1.0079 1.00818 1.00724 1.00748 1.01054 1.01076 1.01034 1.0105 1.01034 1.0105 1.01013 1.01024 1.01019 1.01034 1.01003 1.01013 1.01035 1.01054 1.01019 1.01034 0.998784 1.00008 1.00033 1.00151 1.00008 1.00115 1.00151 1.00244 1.00151 1.00244 1.00312 1.00384 1.00033 1.00151 1.00219 1.00312 1.00937 1.00897 1.00976 1.00946 1.00897 1.00868 1.00946 1.00922 1.00946 1.00922 1.00985 1.00966 1.00976 1.00946 1.01007 1.00985 1.00945 1.00952 1.00964 1.0097 1.00964 1.0097 1.00992 1.00994 1.00956 1.00964 1.00988 1.00992 1.00933 1.00945 1.00956 1.00964 1.01842 1.01727 1.01663 1.01624 1.01727 1.01632 1.01624 1.01592 1.01624 1.01592 1.01521 1.01279 1.01663 1.01624 1.01836 1.01521 0.98826 0.995684 0.988533 0.993937 0.988533 0.993937 0.989252 0.993462 0.983029 0.988533 0.984782 0.989252 0.981173 0.98826 0.983029 0.988533 0.900598 0.888312 0.848672 0.85062 0.934833 0.918508 0.900598 0.888312 0.918508 0.910536 0.888312 0.88699 0.888312 0.88699 0.85062 0.861362 1.01888 1.02334 1.00243 1.00397 1.00243 1.00397 0.985602 0.983767 1.00209 1.00243 0.987904 0.985602 1.01635 1.01888 1.00209 1.00243 0.905966 1.02208 0.881326 1.01284 0.881326 1.01284 0.854933 0.998742 0.863365 0.881326 0.8775 0.854933 0.85522 0.905966 0.863365 0.881326 1.0094 1.00919 1.0092 1.00899 1.00969 1.0094 1.0095 1.0092 1.00982 1.00954 1.00969 1.0094 1.00954 1.00934 1.0094 1.00919 0.901043 0.887061 0.897066 0.875712 0.909841 0.899475 0.901043 0.887061 0.899475 0.887924 0.887061 0.872937 0.887061 0.872937 0.875712 0.855264 1.00599 1.00678 1.00591 1.0066 1.00605 1.00696 1.00599 1.00678 1.00696 1.00793 1.00678 1.00758 1.00678 1.00758 1.0066 1.00728 1.00105 1.00031 1.00154 1.00059 1.0007 1.00013 1.00105 1.00031 1.00013 0.999477 1.00031 0.999511 1.00031 0.999511 1.00059 0.999588 1.00922 1.00908 1.01013 1.01007 1.01013 1.01007 1.01107 1.01115 1.01012 1.01013 1.01091 1.01107 1.0093 1.00922 1.01012 1.01013 0.995937 0.996217 0.995265 0.99558 0.996555 0.996823 0.995937 0.996217 0.996823 0.997086 0.996217 0.996503 0.996217 0.996503 0.99558 0.995917 0.712163 0.864188 1.01812 1.03636 0.864188 0.970263 1.03636 1.04772 1.03636 1.04772 1.03322 1.03606 1.01812 1.03636 1.03336 1.03322 1.00082 1.00057 1.00061 1.00037 1.00105 1.00082 1.00082 1.00061 1.00137 1.00113 1.00105 1.00082 1.00113 1.00085 1.00082 1.00057 0.999777 0.999785 0.999678 0.999683 0.999772 0.999777 0.99968 0.999678 0.999236 0.999245 0.999772 0.999777 0.999245 0.999287 0.999777 0.999785 1.00699 1.00645 1.0068 1.00626 1.00645 1.00589 1.00626 1.0057 1.00626 1.0057 1.0061 1.00555 1.0068 1.00626 1.00664 1.0061 1.01507 1.01395 1.01597 1.01464 1.01603 1.01507 1.01703 1.01597 1.01517 1.01429 1.01603 1.01507 1.01429 1.01331 1.01507 1.01395 1.00208 1.00172 1.00201 1.00168 1.00172 1.00144 1.00168 1.00141 1.00168 1.00141 1.00162 1.00137 1.00201 1.00168 1.00194 1.00162 1.00027 0.999904 1.0001 0.999768 1.00057 1.00027 1.00037 1.0001 1.00085 1.00052 1.00057 1.00027 1.00052 1.00011 1.00027 0.999904 0.974325 0.978506 0.977092 0.980813 0.971162 0.97592 0.974325 0.978506 0.97592 0.981173 0.978506 0.983029 0.978506 0.983029 0.980813 0.984782 0.999874 0.999781 1 1.00002 0.999781 0.999728 1.00002 0.999997 1.00002 0.999997 0.999464 0.999393 1 1.00002 0.999722 0.999464 0.982838 0.993386 0.97785 0.991266 0.97785 0.991266 0.970504 0.987904 0.964522 0.97785 0.952898 0.970504 0.97236 0.982838 0.964522 0.97785 1.06685 1.07561 1.06836 1.08212 1.05965 1.06685 1.0578 1.06836 1.05959 1.06473 1.05965 1.06685 1.06473 1.07081 1.06685 1.07561 0.998061 0.997619 0.997974 0.997509 0.998459 0.998061 0.998393 0.997974 0.998577 0.998207 0.998459 0.998061 0.998207 0.997799 0.998061 0.997619 1.03779 1.04201 1.03555 1.04001 1.04201 1.04696 1.04001 1.04559 1.04001 1.04559 1.03704 1.04258 1.03555 1.04001 1.03275 1.03704 1.0174 1.01777 1.01846 1.0189 1.01777 1.01802 1.0189 1.01917 1.0189 1.01917 1.02029 1.0206 1.01846 1.0189 1.01976 1.02029 1.01857 1.01957 1.01776 1.01853 1.01957 1.02037 1.01853 1.0192 1.01853 1.0192 1.01759 1.01818 1.01776 1.01853 1.01693 1.01759 0.851266 0.872142 0.623907 0.63317 0.872142 0.886058 0.63317 0.651578 0.63317 0.651578 0.827129 0.903228 0.623907 0.63317 0.743839 0.827129 0.925324 0.919226 0.937509 0.932473 0.909841 0.901043 0.925324 0.919226 0.901043 0.897066 0.919226 0.91578 0.919226 0.91578 0.932473 0.9291 0.8545 0.799453 0.913224 0.782975 0.913224 0.782975 0.983702 0.842489 1.03054 0.913224 1.0326 0.983702 1.01358 0.8545 1.03054 0.913224 1.01492 1.01677 1.01906 1.01659 1.01677 1.01818 1.01659 1.01803 1.01659 1.01803 1.01967 1.01803 1.01906 1.01659 1.02514 1.01967 1.04201 1.04076 1.04696 1.04689 1.03779 1.03572 1.04201 1.04076 1.03572 1.0336 1.04076 1.03914 1.04076 1.03914 1.04689 1.04572 0.956458 0.943328 0.951675 0.940083 0.965549 0.956458 0.960332 0.951675 0.97236 0.964522 0.965549 0.956458 0.964522 0.952898 0.956458 0.943328 1.02014 1.02147 1.01963 1.0212 1.01963 1.0212 1.01891 1.02061 1.01828 1.01963 1.01749 1.01891 1.01894 1.02014 1.01828 1.01963 0.985101 0.989842 0.985848 0.992182 0.979633 0.985101 0.978538 0.985848 0.980961 0.985138 0.979633 0.985101 0.985138 0.988747 0.985101 0.989842 1.01492 1.01906 1.0168 1.02865 1.01906 1.02514 1.02865 1.00507 1.02865 1.00507 1.01963 0.903228 1.0168 1.02865 1.02296 1.01963 1.00758 1.00832 1.00728 1.00792 1.00793 1.00877 1.00758 1.00832 1.00877 1.00949 1.00832 1.00897 1.00832 1.00897 1.00792 1.00852 1.0323 1.03987 0.907486 0.984374 1.01 1.0323 0.818907 0.907486 1.03093 1.02866 1.01 1.0323 1.02866 1.02753 1.0323 1.03987 0.979392 0.976731 0.979917 0.97739 0.979239 0.976546 0.979392 0.976731 0.976546 0.973315 0.976731 0.973531 0.976731 0.973531 0.97739 0.974374 1.00392 1.0047 1.00378 1.00463 1.00399 1.0047 1.00392 1.0047 1.0047 1.00545 1.0047 1.00551 1.0047 1.00551 1.00463 1.00552 1.00911 1.00956 1.00937 1.00979 1.00875 1.00911 1.00901 1.00937 1.00843 1.00881 1.00875 1.00911 1.00881 1.00927 1.00911 1.00956 1.01205 1.0117 1.01284 1.01248 1.01137 1.01103 1.01205 1.0117 1.01103 1.01059 1.0117 1.01124 1.0117 1.01124 1.01248 1.012 1.00262 1.00397 1.00412 1.00558 1.00397 1.00581 1.00558 1.00747 1.00558 1.00747 1.00682 1.00868 1.00412 1.00558 1.00531 1.00682 0.999888 0.99968 0.999884 0.999678 0.999884 0.999678 0.99989 0.999683 0.999932 0.999884 0.999929 0.99989 0.999935 0.999888 0.999932 0.999884 0.988999 0.990788 0.990232 0.991743 0.987317 0.988999 0.988813 0.990232 0.985631 0.987648 0.987317 0.988999 0.987648 0.989783 0.988999 0.990788 0.972476 0.96829 0.97762 0.973177 0.97592 0.972476 0.981173 0.97762 0.971162 0.968421 0.97592 0.972476 0.968421 0.965386 0.972476 0.96829 1.0235 1.04433 1.02839 1.04466 1.02839 1.04466 1.03039 1.04349 1.01391 1.02839 1.01839 1.03039 1.00591 1.0235 1.01391 1.02839 1.01009 1.01039 1.01008 1.01037 1.01008 1.01037 1.01006 1.01041 1.0098 1.01008 1.00978 1.01006 1.00982 1.01009 1.0098 1.01008 0.991914 0.990808 0.990728 0.989481 0.990808 0.989524 0.989481 0.988027 0.989481 0.988027 0.988356 0.986763 0.990728 0.989481 0.989723 0.988356 0.819436 0.934502 0.376468 0.533853 0.712886 0.819436 0.267672 0.376468 1.01482 1.06052 0.712886 0.819436 1.06052 1.10094 0.819436 0.934502 0.994614 0.993818 0.995302 0.994613 0.993828 0.992899 0.994614 0.993818 0.992899 0.992113 0.993818 0.993145 0.993818 0.993145 0.994613 0.994033 1.00313 1.0027 1.00232 1.00176 1.00232 1.00176 1.0016 1.00099 1.00276 1.00232 1.00211 1.0016 1.00346 1.00313 1.00276 1.00232 1.01069 1.01026 1.01063 1.01025 1.01026 1.00988 1.01025 1.00992 1.01025 1.00992 1.01022 1.00994 1.01063 1.01025 1.01056 1.01022 1.00001 1.00004 1.0001 1.00012 1.0001 1.00012 1.00002 1.00003 1.00008 1.0001 1.00001 1.00002 0.999978 1.00001 1.00008 1.0001 0.995019 0.994534 0.995672 0.995221 0.995672 0.995221 0.996325 0.995917 0.996101 0.995672 0.996712 0.996325 0.99548 0.995019 0.996101 0.995672 1.02284 1.02168 1.02463 1.0232 1.02133 1.02037 1.02284 1.02168 1.02037 1.0192 1.02168 1.02029 1.02168 1.02029 1.0232 1.02152 1.14024 1.13886 1.11739 1.11042 1.13886 1.12556 1.11042 1.10016 1.11042 1.10016 1.09216 1.0839 1.11739 1.11042 1.09629 1.09216 0.695562 0.545886 0.591019 0.340955 0.545886 0 0.340955 0 0.340955 0 0.27209 0 0.591019 0.340955 0.525065 0.27209 1.0169 1.01776 1.01636 1.01693 1.01613 1.0169 1.01574 1.01636 1.01653 1.01746 1.01613 1.0169 1.01746 1.01857 1.0169 1.01776 0.996196 0.994128 0.996094 0.993678 0.99609