# vtk DataFile Version 2.0
VTK from Matlab
ASCII
DATASET STRUCTURED_GRID
DIMENSIONS 5 5 1
POINTS 25 float
1.00 1.00 1.00 1.00 2.00 1.00 1.00 3.00 1.00 1.00 4.00 1.00 1.00 5.00 1.00 2.00 1.00 1.00 2.00 2.00 1.00 2.00 3.00 1.00 2.00 4.00 1.00 2.00 5.00 1.00 3.00 1.00 1.00 3.00 2.00 1.00 3.00 3.00 1.00 3.00 4.00 1.00 3.00 5.00 1.00 4.00 1.00 1.00 4.00 2.00 1.00 4.00 3.00 1.00 4.00 4.00 1.00 4.00 5.00 1.00 5.00 1.00 1.00 5.00 2.00 1.00 5.00 3.00 1.00 5.00 4.00 1.00 5.00 5.00 1.00 
POINT_DATA 25
VECTORS vector_field float
