# vtk DataFile Version 2.0
VTK from Matlab
ASCII
DATASET STRUCTURED_GRID
DIMENSIONS 35 41 15
POINTS 21525 float
70.19 17.50 -0.00 70.19 18.75 -0.00 70.19 20.00 -0.00 70.19 21.25 -0.00 70.19 22.50 -0.00 70.19 23.75 -0.00 70.19 25.00 -0.00 70.19 26.25 -0.00 70.19 27.50 -0.00 70.19 28.75 -0.00 70.19 30.00 -0.00 70.19 31.25 -0.00 70.19 32.50 -0.00 70.19 33.75 -0.00 70.19 35.00 -0.00 70.19 36.25 -0.00 70.19 37.50 -0.00 70.19 38.75 -0.00 70.19 40.00 -0.00 70.19 41.25 -0.00 70.19 42.50 -0.00 70.19 43.75 -0.00 70.19 45.00 -0.00 70.19 46.25 -0.00 70.19 47.50 -0.00 70.19 48.75 -0.00 70.19 50.00 -0.00 70.19 51.25 -0.00 70.19 52.50 -0.00 70.19 53.75 -0.00 70.19 55.00 -0.00 70.19 56.25 -0.00 70.19 57.50 -0.00 70.19 58.75 -0.00 70.19 60.00 -0.00 71.79 17.50 -0.00 71.79 18.75 -0.00 71.79 20.00 -0.00 71.79 21.25 -0.00 71.79 22.50 -0.00 71.79 23.75 -0.00 71.79 25.00 -0.00 71.79 26.25 -0.00 71.79 27.50 -0.00 71.79 28.75 -0.00 71.79 30.00 -0.00 71.79 31.25 -0.00 71.79 32.50 -0.00 71.79 33.75 -0.00 71.79 35.00 -0.00 71.79 36.25 -0.00 71.79 37.50 -0.00 71.79 38.75 -0.00 71.79 40.00 -0.00 71.79 41.25 -0.00 71.79 42.50 -0.00 71.79 43.75 -0.00 71.79 45.00 -0.00 71.79 46.25 -0.00 71.79 47.50 -0.00 71.79 48.75 -0.00 71.79 50.00 -0.00 71.79 51.25 -0.00 71.79 52.50 -0.00 71.79 53.75 -0.00 71.79 55.00 -0.00 71.79 56.25 -0.00 71.79 57.50 -0.00 71.79 58.75 -0.00 71.79 60.00 -0.00 73.39 17.50 -0.00 73.39 18.75 -0.00 73.39 20.00 -0.00 73.39 21.25 -0.00 73.39 22.50 -0.00 73.39 23.75 -0.00 73.39 25.00 -0.00 73.39 26.25 -0.00 73.39 27.50 -0.00 73.39 28.75 -0.00 73.39 30.00 -0.00 73.39 31.25 -0.00 73.39 32.50 -0.00 73.39 33.75 -0.00 73.39 35.00 -0.00 73.39 36.25 -0.00 73.39 37.50 -0.00 73.39 38.75 -0.00 73.39 40.00 -0.00 73.39 41.25 -0.00 73.39 42.50 -0.00 73.39 43.75 -0.00 73.39 45.00 -0.00 73.39 46.25 -0.00 73.39 47.50 -0.00 73.39 48.75 -0.00 73.39 50.00 -0.00 73.39 51.25 -0.00 73.39 52.50 -0.00 73.39 53.75 -0.00 73.39 55.00 -0.00 73.39 56.25 -0.00 73.39 57.50 -0.00 73.39 58.75 -0.00 73.39 60.00 -0.00 75.00 17.50 -0.00 75.00 18.75 -0.00 75.00 20.00 -0.00 75.00 21.25 -0.00 75.00 22.50 -0.00 75.00 23.75 -0.00 75.00 25.00 -0.00 75.00 26.25 -0.00 75.00 27.50 -0.00 75.00 28.75 -0.00 75.00 30.00 -0.00 75.00 31.25 -0.00 75.00 32.50 -0.00 75.00 33.75 -0.00 75.00 35.00 -0.00 75.00 36.25 -0.00 75.00 37.50 -0.00 75.00 38.75 -0.00 75.00 40.00 -0.00 75.00 41.25 -0.00 75.00 42.50 -0.00 75.00 43.75 -0.00 75.00 45.00 -0.00 75.00 46.25 -0.00 75.00 47.50 -0.00 75.00 48.75 -0.00 75.00 50.00 -0.00 75.00 51.25 -0.00 75.00 52.50 -0.00 75.00 53.75 -0.00 75.00 55.00 -0.00 75.00 56.25 -0.00 75.00 57.50 -0.00 75.00 58.75 -0.00 75.00 60.00 -0.00 76.60 17.50 -0.00 76.60 18.75 -0.00 76.60 20.00 -0.00 76.60 21.25 -0.00 76.60 22.50 -0.00 76.60 23.75 -0.00 76.60 25.00 -0.00 76.60 26.25 -0.00 76.60 27.50 -0.00 76.60 28.75 -0.00 76.60 30.00 -0.00 76.60 31.25 -0.00 76.60 32.50 -0.00 76.60 33.75 -0.00 76.60 35.00 -0.00 76.60 36.25 -0.00 76.60 37.50 -0.00 76.60 38.75 -0.00 76.60 40.00 -0.00 76.60 41.25 -0.00 76.60 42.50 -0.00 76.60 43.75 -0.00 76.60 45.00 -0.00 76.60 46.25 -0.00 76.60 47.50 -0.00 76.60 48.75 -0.00 76.60 50.00 -0.00 76.60 51.25 -0.00 76.60 52.50 -0.00 76.60 53.75 -0.00 76.60 55.00 -0.00 76.60 56.25 -0.00 76.60 57.50 -0.00 76.60 58.75 -0.00 76.60 60.00 -0.00 78.20 17.50 -0.00 78.20 18.75 -0.00 78.20 20.00 -0.00 78.20 21.25 -0.00 78.20 22.50 -0.00 78.20 23.75 -0.00 78.20 25.00 -0.00 78.20 26.25 -0.00 78.20 27.50 -0.00 78.20 28.75 -0.00 78.20 30.00 -0.00 78.20 31.25 -0.00 78.20 32.50 -0.00 78.20 33.75 -0.00 78.20 35.00 -0.00 78.20 36.25 -0.00 78.20 37.50 -0.00 78.20 38.75 -0.00 78.20 40.00 -0.00 78.20 41.25 -0.00 78.20 42.50 -0.00 78.20 43.75 -0.00 78.20 45.00 -0.00 78.20 46.25 -0.00 78.20 47.50 -0.00 78.20 48.75 -0.00 78.20 50.00 -0.00 78.20 51.25 -0.00 78.20 52.50 -0.00 78.20 53.75 -0.00 78.20 55.00 -0.00 78.20 56.25 -0.00 78.20 57.50 -0.00 78.20 58.75 -0.00 78.20 60.00 -0.00 79.80 17.50 -0.00 79.80 18.75 -0.00 79.80 20.00 -0.00 79.80 21.25 -0.00 79.80 22.50 -0.00 79.80 23.75 -0.00 79.80 25.00 -0.00 79.80 26.25 -0.00 79.80 27.50 -0.00 79.80 28.75 -0.00 79.80 30.00 -0.00 79.80 31.25 -0.00 79.80 32.50 -0.00 79.80 33.75 -0.00 79.80 35.00 -0.00 79.80 36.25 -0.00 79.80 37.50 -0.00 79.80 38.75 -0.00 79.80 40.00 -0.00 79.80 41.25 -0.00 79.80 42.50 -0.00 79.80 43.75 -0.00 79.80 45.00 -0.00 79.80 46.25 -0.00 79.80 47.50 -0.00 79.80 48.75 -0.00 79.80 50.00 -0.00 79.80 51.25 -0.00 79.80 52.50 -0.00 79.80 53.75 -0.00 79.80 55.00 -0.00 79.80 56.25 -0.00 79.80 57.50 -0.00 79.80 58.75 -0.00 79.80 60.00 -0.00 81.41 17.50 -0.00 81.41 18.75 -0.00 81.41 20.00 -0.00 81.41 21.25 -0.00 81.41 22.50 -0.00 81.41 23.75 -0.00 81.41 25.00 -0.00 81.41 26.25 -0.00 81.41 27.50 -0.00 81.41 28.75 -0.00 81.41 30.00 -0.00 81.41 31.25 -0.00 81.41 32.50 -0.00 81.41 33.75 -0.00 81.41 35.00 -0.00 81.41 36.25 -0.00 81.41 37.50 -0.00 81.41 38.75 -0.00 81.41 40.00 -0.00 81.41 41.25 -0.00 81.41 42.50 -0.00 81.41 43.75 -0.00 81.41 45.00 -0.00 81.41 46.25 -0.00 81.41 47.50 -0.00 81.41 48.75 -0.00 81.41 50.00 -0.00 81.41 51.25 -0.00 81.41 52.50 -0.00 81.41 53.75 -0.00 81.41 55.00 -0.00 81.41 56.25 -0.00 81.41 57.50 -0.00 81.41 58.75 -0.00 81.41 60.00 -0.00 83.01 17.50 -0.00 83.01 18.75 -0.00 83.01 20.00 -0.00 83.01 21.25 -0.00 83.01 22.50 -0.00 83.01 23.75 -0.00 83.01 25.00 -0.00 83.01 26.25 -0.00 83.01 27.50 -0.00 83.01 28.75 -0.00 83.01 30.00 -0.00 83.01 31.25 -0.00 83.01 32.50 -0.00 83.01 33.75 -0.00 83.01 35.00 -0.00 83.01 36.25 -0.00 83.01 37.50 -0.00 83.01 38.75 -0.00 83.01 40.00 -0.00 83.01 41.25 -0.00 83.01 42.50 -0.00 83.01 43.75 -0.00 83.01 45.00 -0.00 83.01 46.25 -0.00 83.01 47.50 -0.00 83.01 48.75 -0.00 83.01 50.00 -0.00 83.01 51.25 -0.00 83.01 52.50 -0.00 83.01 53.75 -0.00 83.01 55.00 -0.00 83.01 56.25 -0.00 83.01 57.50 -0.00 83.01 58.75 -0.00 83.01 60.00 -0.00 84.61 17.50 -0.00 84.61 18.75 -0.00 84.61 20.00 -0.00 84.61 21.25 -0.00 84.61 22.50 -0.00 84.61 23.75 -0.00 84.61 25.00 -0.00 84.61 26.25 -0.00 84.61 27.50 -0.00 84.61 28.75 -0.00 84.61 30.00 -0.00 84.61 31.25 -0.00 84.61 32.50 -0.00 84.61 33.75 -0.00 84.61 35.00 -0.00 84.61 36.25 -0.00 84.61 37.50 -0.00 84.61 38.75 -0.00 84.61 40.00 -0.00 84.61 41.25 -0.00 84.61 42.50 -0.00 84.61 43.75 -0.00 84.61 45.00 -0.00 84.61 46.25 -0.00 84.61 47.50 -0.00 84.61 48.75 -0.00 84.61 50.00 -0.00 84.61 51.25 -0.00 84.61 52.50 -0.00 84.61 53.75 -0.00 84.61 55.00 -0.00 84.61 56.25 -0.00 84.61 57.50 -0.00 84.61 58.75 -0.00 84.61 60.00 -0.00 86.22 17.50 -0.00 86.22 18.75 -0.00 86.22 20.00 -0.00 86.22 21.25 -0.00 86.22 22.50 -0.00 86.22 23.75 -0.00 86.22 25.00 -0.00 86.22 26.25 -0.00 86.22 27.50 -0.00 86.22 28.75 -0.00 86.22 30.00 -0.00 86.22 31.25 -0.00 86.22 32.50 -0.00 86.22 33.75 -0.00 86.22 35.00 -0.00 86.22 36.25 -0.00 86.22 37.50 -0.00 86.22 38.75 -0.00 86.22 40.00 -0.00 86.22 41.25 -0.00 86.22 42.50 -0.00 86.22 43.75 -0.00 86.22 45.00 -0.00 86.22 46.25 -0.00 86.22 47.50 -0.00 86.22 48.75 -0.00 86.22 50.00 -0.00 86.22 51.25 -0.00 86.22 52.50 -0.00 86.22 53.75 -0.00 86.22 55.00 -0.00 86.22 56.25 -0.00 86.22 57.50 -0.00 86.22 58.75 -0.00 86.22 60.00 -0.00 87.82 17.50 -0.00 87.82 18.75 -0.00 87.82 20.00 -0.00 87.82 21.25 -0.00 87.82 22.50 -0.00 87.82 23.75 -0.00 87.82 25.00 -0.00 87.82 26.25 -0.00 87.82 27.50 -0.00 87.82 28.75 -0.00 87.82 30.00 -0.00 87.82 31.25 -0.00 87.82 32.50 -0.00 87.82 33.75 -0.00 87.82 35.00 -0.00 87.82 36.25 -0.00 87.82 37.50 -0.00 87.82 38.75 -0.00 87.82 40.00 -0.00 87.82 41.25 -0.00 87.82 42.50 -0.00 87.82 43.75 -0.00 87.82 45.00 -0.00 87.82 46.25 -0.00 87.82 47.50 -0.00 87.82 48.75 -0.00 87.82 50.00 -0.00 87.82 51.25 -0.00 87.82 52.50 -0.00 87.82 53.75 -0.00 87.82 55.00 -0.00 87.82 56.25 -0.00 87.82 57.50 -0.00 87.82 58.75 -0.00 87.82 60.00 -0.00 89.42 17.50 -0.00 89.42 18.75 -0.00 89.42 20.00 -0.00 89.42 21.25 -0.00 89.42 22.50 -0.00 89.42 23.75 -0.00 89.42 25.00 -0.00 89.42 26.25 -0.00 89.42 27.50 -0.00 89.42 28.75 -0.00 89.42 30.00 -0.00 89.42 31.25 -0.00 89.42 32.50 -0.00 89.42 33.75 -0.00 89.42 35.00 -0.00 89.42 36.25 -0.00 89.42 37.50 -0.00 89.42 38.75 -0.00 89.42 40.00 -0.00 89.42 41.25 -0.00 89.42 42.50 -0.00 89.42 43.75 -0.00 89.42 45.00 -0.00 89.42 46.25 -0.00 89.42 47.50 -0.00 89.42 48.75 -0.00 89.42 50.00 -0.00 89.42 51.25 -0.00 89.42 52.50 -0.00 89.42 53.75 -0.00 89.42 55.00 -0.00 89.42 56.25 -0.00 89.42 57.50 -0.00 89.42 58.75 -0.00 89.42 60.00 -0.00 91.02 17.50 -0.00 91.02 18.75 -0.00 91.02 20.00 -0.00 91.02 21.25 -0.00 91.02 22.50 -0.00 91.02 23.75 -0.00 91.02 25.00 -0.00 91.02 26.25 -0.00 91.02 27.50 -0.00 91.02 28.75 -0.00 91.02 30.00 -0.00 91.02 31.25 -0.00 91.02 32.50 -0.00 91.02 33.75 -0.00 91.02 35.00 -0.00 91.02 36.25 -0.00 91.02 37.50 -0.00 91.02 38.75 -0.00 91.02 40.00 -0.00 91.02 41.25 -0.00 91.02 42.50 -0.00 91.02 43.75 -0.00 91.02 45.00 -0.00 91.02 46.25 -0.00 91.02 47.50 -0.00 91.02 48.75 -0.00 91.02 50.00 -0.00 91.02 51.25 -0.00 91.02 52.50 -0.00 91.02 53.75 -0.00 91.02 55.00 -0.00 91.02 56.25 -0.00 91.02 57.50 -0.00 91.02 58.75 -0.00 91.02 60.00 -0.00 92.63 17.50 -0.00 92.63 18.75 -0.00 92.63 20.00 -0.00 92.63 21.25 -0.00 92.63 22.50 -0.00 92.63 23.75 -0.00 92.63 25.00 -0.00 92.63 26.25 -0.00 92.63 27.50 -0.00 92.63 28.75 -0.00 92.63 30.00 -0.00 92.63 31.25 -0.00 92.63 32.50 -0.00 92.63 33.75 -0.00 92.63 35.00 -0.00 92.63 36.25 -0.00 92.63 37.50 -0.00 92.63 38.75 -0.00 92.63 40.00 -0.00 92.63 41.25 -0.00 92.63 42.50 -0.00 92.63 43.75 -0.00 92.63 45.00 -0.00 92.63 46.25 -0.00 92.63 47.50 -0.00 92.63 48.75 -0.00 92.63 50.00 -0.00 92.63 51.25 -0.00 92.63 52.50 -0.00 92.63 53.75 -0.00 92.63 55.00 -0.00 92.63 56.25 -0.00 92.63 57.50 -0.00 92.63 58.75 -0.00 92.63 60.00 -0.00 94.23 17.50 -0.00 94.23 18.75 -0.00 94.23 20.00 -0.00 94.23 21.25 -0.00 94.23 22.50 -0.00 94.23 23.75 -0.00 94.23 25.00 -0.00 94.23 26.25 -0.00 94.23 27.50 -0.00 94.23 28.75 -0.00 94.23 30.00 -0.00 94.23 31.25 -0.00 94.23 32.50 -0.00 94.23 33.75 -0.00 94.23 35.00 -0.00 94.23 36.25 -0.00 94.23 37.50 -0.00 94.23 38.75 -0.00 94.23 40.00 -0.00 94.23 41.25 -0.00 94.23 42.50 -0.00 94.23 43.75 -0.00 94.23 45.00 -0.00 94.23 46.25 -0.00 94.23 
[...]
POINT_DATA 21525
VECTORS vector_field float
0.57 0.63 -0.00 0.57 0.98 -0.00 0.57 0.98 -0.00 0.88 0.98 -0.00 1.19 0.98 -0.00 1.50 0.98 -0.00 1.50 0.63 -0.00 2.12 0.63 -0.00 3.05 0.63 -0.00 4.61 0.98 -0.00 4.61 -0.07 -0.00 4.92 -1.12 -0.00 4.92 -0.42 -0.00 5.23 -0.07 -0.00 5.23 0.28 -0.00 5.23 -0.07 -0.00 5.54 -0.42 -0.00 6.16 -0.07 -0.00 5.54 -1.83 -0.00 3.36 -0.77 -0.00 1.50 -0.42 -0.00 0.88 -1.12 -0.00 0.26 -0.77 -0.00 -0.67 -1.12 -0.00 -2.23 -0.42 -0.00 -3.16 -0.07 -0.00 -3.78 0.63 -0.00 -4.40 1.33 -0.00 -4.71 2.03 -0.00 -3.78 2.03 -0.00 -2.54 0.98 -0.00 -1.29 -0.07 -0.00 -0.98 -0.42 -0.00 -1.29 -1.48 -0.00 -2.54 -1.48 -0.00 0.57 0.63 -0.00 0.57 0.98 -0.00 0.88 0.98 -0.00 0.88 1.33 -0.00 1.19 1.33 -0.00 1.50 0.98 -0.00 1.19 0.28 -0.00 2.12 0.98 -0.00 3.67 1.68 -0.00 3.36 0.28 -0.00 3.36 -1.12 -0.00 4.30 -0.77 -0.00 4.92 -0.42 -0.00 5.23 -0.42 -0.00 5.54 -0.07 -0.00 4.92 -0.07 -0.00 4.92 0.28 -0.00 4.61 0.28 -0.00 4.61 -1.48 -0.00 4.30 -0.77 -0.00 0.57 -0.07 -0.00 1.50 -1.12 -0.00 0.88 -0.77 -0.00 0.26 -0.77 -0.00 -1.61 -0.42 -0.00 -2.54 0.28 -0.00 -2.85 1.33 -0.00 -2.85 1.68 -0.00 -3.47 2.38 -0.00 -2.85 2.38 -0.00 -1.29 0.98 -0.00 -0.67 0.63 -0.00 -2.23 0.98 -0.00 -2.85 0.63 -0.00 -2.85 -0.77 -0.00 0.57 0.63 -0.00 0.57 0.98 -0.00 0.88 1.33 -0.00 0.88 1.68 -0.00 0.88 1.68 -0.00 0.57 0.63 -0.00 0.88 1.33 -0.00 3.05 3.08 -0.00 3.05 1.33 -0.00 2.12 -0.77 -0.00 3.05 -0.77 -0.00 4.30 -0.42 -0.00 4.61 0.28 -0.00 4.61 -0.07 -0.00 4.61 -0.07 -0.00 4.30 -0.42 -0.00 4.61 -0.42 -0.00 4.61 -0.77 -0.00 3.67 -0.77 -0.00 3.36 -1.48 -0.00 0.57 -1.12 -0.00 0.88 -0.77 -0.00 1.19 -2.53 -0.00 -0.67 -1.83 -0.00 -1.61 -0.77 -0.00 -2.23 0.28 -0.00 -2.54 1.33 -0.00 -2.54 1.68 -0.00 -2.23 2.38 -0.00 -1.29 1.68 -0.00 -0.98 1.68 -0.00 -0.98 1.68 -0.00 -3.16 3.43 -0.00 -2.85 1.33 -0.00 -4.40 1.68 -0.00 0.88 0.63 -0.00 0.88 1.33 -0.00 0.57 1.33 -0.00 0.88 1.68 -0.00 0.57 0.63 -0.00 0.26 0.28 -0.00 2.12 3.08 -0.00 2.43 2.38 -0.00 0.88 -0.77 -0.00 2.43 -1.12 -0.00 3.36 -0.07 -0.00 3.36 0.28 -0.00 3.05 0.63 -0.00 3.05 -0.07 -0.00 3.05 -1.12 -0.00 3.05 -0.42 -0.00 2.43 0.28 -0.00 2.74 -0.77 -0.00 3.05 -0.42 -0.00 2.12 -0.77 -0.00 1.19 -1.48 -0.00 0.88 -0.77 -0.00 1.19 -2.53 -0.00 1.19 -2.18 -0.00 0.57 -1.83 -0.00 -0.98 0.28 -0.00 -0.98 0.98 -0.00 -0.98 1.68 -0.00 0.26 1.68 -0.00 -0.67 2.38 -0.00 -0.67 2.03 -0.00 -0.36 2.03 -0.00 -1.61 2.38 -0.00 -2.23 0.28 -0.00 -4.40 0.63 -0.00 0.57 0.63 -0.00 0.57 1.33 -0.00 0.26 1.68 -0.00 0.57 1.68 -0.00 0.26 0.28 -0.00 0.57 2.03 -0.00 1.50 3.43 -0.00 0.88 0.28 -0.00 0.57 -0.42 -0.00 2.74 0.98 -0.00 3.05 0.28 -0.00 2.12 -0.07 -0.00 1.19 -0.42 -0.00 1.19 -0.42 -0.00 1.19 -0.07 -0.00 1.50 -0.77 -0.00 1.19 -0.77 -0.00 1.50 0.28 -0.00 2.12 -0.07 -0.00 -0.36 -0.77 -0.00 -0.36 -1.12 -0.00 0.57 -0.77 -0.00 0.26 -1.48 -0.00 0.57 -3.23 -0.00 0.26 -2.53 -0.00 0.26 -1.12 -0.00 -0.67 0.98 -0.00 -0.67 2.03 -0.00 -1.29 3.78 -0.00 -0.98 4.13 -0.00 -0.36 2.38 -0.00 -0.98 3.08 -0.00 -2.54 5.53 -0.00 -3.47 3.08 -0.00 -3.78 0.28 -0.00 0.57 0.63 -0.00 0.57 0.63 -0.00 0.26 1.68 -0.00 0.57 1.68 -0.00 0.26 -0.07 -0.00 0.57 2.38 -0.00 0.26 2.38 -0.00 0.26 -0.42 -0.00 2.12 0.28 -0.00 2.43 0.98 -0.00 0.57 -0.07 -0.00 0.57 -0.42 -0.00 0.57 -0.77 -0.00 0.57 -0.77 -0.00 0.26 -0.42 -0.00 -0.36 -0.07 -0.00 0.57 0.63 -0.00 -0.36 0.28 -0.00 0.26 -0.42 -0.00 -0.36 -0.42 -0.00 -0.36 -0.07 -0.00 0.57 -0.07 -0.00 0.88 -0.42 -0.00 0.57 -0.77 -0.00 0.88 -0.07 -0.00 0.88 0.63 -0.00 -0.98 3.43 -0.00 -2.54 5.53 -0.00 -2.23 5.53 -0.00 -0.67 4.13 -0.00 0.26 2.03 -0.00 -1.61 5.53 -0.00 -1.61 3.78 -0.00 -3.16 1.33 -0.00 -2.85 -0.42 -0.00 0.57 0.28 -0.00 0.26 0.63 -0.00 0.57 2.03 -0.00 0.26 1.33 -0.00 -0.36 0.28 -0.00 0.88 2.03 -0.00 -0.36 1.68 -0.00 0.57 0.63 -0.00 2.43 0.98 -0.00 0.57 -0.42 -0.00 0.57 -0.42 -0.00 -0.67 0.28 -0.00 -0.67 -0.42 -0.00 -1.29 -0.42 -0.00 -1.61 -0.42 -0.00 -2.23 -0.07 -0.00 -2.54 -0.42 -0.00 -1.29 0.28 -0.00 -0.36 0.98 -0.00 0.26 0.98 -0.00 0.88 0.28 -0.00 -0.36 0.98 -0.00 0.26 0.98 -0.00 0.26 0.28 -0.00 0.26 2.38 -0.00 -0.36 3.78 -0.00 -1.29 5.53 -0.00 -1.29 6.59 -0.00 -1.61 5.18 -0.00 0.26 1.68 -0.00 -0.36 2.03 -0.00 -1.29 3.08 -0.00 -2.85 4.48 -0.00 -3.16 0.98 -0.00 -1.61 -1.12 -0.00 0.88 -0.42 -0.00 0.26 0.98 -0.00 0.88 2.03 -0.00 -0.36 0.28 -0.00 -0.36 0.98 -0.00 0.88 1.68 -0.00 0.57 0.28 -0.00 2.12 1.33 -0.00 0.88 -0.77 -0.00 0.88 -0.77 -0.00 0.57 -0.77 -0.00 -0.36 -1.83 -0.00 -1.61 -0.42 -0.00 -2.54 -0.77 -0.00 -3.16 -0.77 -0.00 -3.16 -0.42 -0.00 -1.61 1.33 -0.00 0.26 1.33 -0.00 2.12 0.63 -0.00 2.74 1.33 -0.00 3.36 2.38 -0.00 3.36 1.68 -0.00 1.50 1.68 -0.00 1.50 1.33 -0.00 0.57 2.73 -0.00 0.88 3.43 -0.00 1.50 4.83 -0.00 0.57 6.94 -0.00 -0.36 3.08 -0.00 -0.98 2.03 -0.00 -1.29 3.08 -0.00 -1.61 0.98 -0.00 -2.54 0.98 -0.00 -0.98 -1.48 -0.00 -0.67 -1.48 -0.00 0.88 -0.42 -0.00 1.19 0.98 -0.00 0.88 1.68 -0.00 -0.36 -0.07 -0.00 1.19 1.33 -0.00 2.12 2.03 -0.00 2.12 1.68 -0.00 2.74 0.28 -0.00 0.88 -1.48 -0.00 2.12 -1.83 -0.00 0.26 -1.12 -0.00 -0.67 -1.83 -0.00 -0.98 -1.48 -0.00 -3.16 -0.42 -0.00 -2.85 -0.42 -0.00 -2.23 0.63 -0.00 -0.36 1.33 -0.00 0.88 0.98 -0.00 1.50 1.68 -0.00 2.74 2.03 -0.00 2.43 1.33 -0.00 1.50 0.98 -0.00 1.19 1.68 -0.00 1.50 1.33 -0.00 2.12 2.03 -0.00 2.43 3.43 -0.00 2.74 4.13 -0.00 0.57 5.53 -0.00 -0.36 2.73 -0.00 -3.47 4.48 -0.00 -2.54 1.33 -0.00 -2.85 0.28 -0.00 -1.61 -1.12 -0.00 -1.29 -1.48 -0.00 -2.23 -0.42 -0.00 0.88 0.28 -0.00 2.12 0.98 -0.00 0.57 0.28 -0.00 0.57 -0.07 -0.00 1.19 2.73 -0.00 2.12 1.33 -0.00 3.67 0.28 -0.00 2.12 -0.42 -0.00 2.12 -2.18 -0.00 0.88 -2.18 -0.00 2.12 -3.58 -0.00 -0.36 -2.53 -0.00 -0.67 -1.83 -0.00 -1.29 -1.12 -0.00 0.26 0.63 -0.00 1.19 0.28 -0.00 2.12 0.98 -0.00 2.43 2.73 -0.00 3.67 2.38 -0.00 3.67 2.38 -0.00 2.12 1.33 -0.00 0.88 0.28 -0.00 0.26 0.28 -0.00 0.57 0.63 -0.00 1.19 1.33 -0.00 2.74 2.73 -0.00 2.43 3.78 -0.00 1.19 5.18 -0.00 -0.98 4.83 -0.00 -4.40 3.78 -0.00 -3.16 -0.42 -0.00 -3.16 -0.42 -0.00 -2.23 -1.12 -0.00 -2.54 -0.77 -0.00 -3.16 -0.42 -0.00 0.88 1.33 -0.00 1.50 0.63 -0.00 -0.36 -0.07 -0.00 1.19 0.63 -0.00 1.19 1.68 -0.00 0.57 3.08 -0.00 3.05 0.98 -0.00 2.12 -2.18 -0.00 3.36 -1.83 -0.00 3.05 -1.83 -0.00 2.12 -3.58 -0.00 1.19 -4.28 -0.00 2.12 -3.23 -0.00 3.36 -2.18 -0.00 4.92 -2.53 -0.00 6.47 0.28 -0.00 8.33 3.08 -0.00 5.54 3.08 -0.00 4.61 2.03 -0.00 3.05 -0.07 -0.00 0.57 -1.48 -0.00 -0.67 -1.48 -0.00 -2.54 -0.77 -0.00 -0.36 -0.07 -0.00 -0.36 0.28 -0.00 1.50 1.68 -0.00 2.74 2.73 -0.00 1.50 4.13 -0.00 -1.61 4.48 -0.00 -3.78 1.33 -0.00 -3.78 -0.77 -0.00 -3.47 -0.77 -0.00 -3.47 -0.42 -0.00 -4.40 0.63 -0.00 -4.71 0.63 -0.00 0.88 1.33 -0.00 0.88 -0.07 -0.00 0.26 -0.07 -0.00 0.26 1.33 -0.00 0.57 0.98 -0.00 2.74 2.03 -0.00 -1.29 -0.42 -0.00 -0.36 -1.48 -0.00 3.05 -0.42 -0.00 3.05 -1.83 -0.00 4.61 -1.83 -0.00 6.47 -1.12 -0.00 7.40 -1.48 -0.00 8.33 -0.77 -0.00 6.78 -0.42 -0.00 8.33 -1.83 -0.00 10.51 0.28 -0.00 8.64 2.38 -0.00 7.09 0.28 -0.00 4.92 -2.53 -0.00 1.50 -4.28 -0.00 -2.23 -3.58 -0.00 -3.47 -1.83 -0.00 -1.61 -0.42 -0.00 0.26 0.98 -0.00 1.50 1.68 -0.00 3.36 2.73 -0.00 2.74 2.73 -0.00 -2.54 2.73 -0.00 -5.02 -0.07 -0.00 -4.71 -0.42 -0.00 -4.40 -0.42 -0.00 -5.64 0.98 -0.00 -5.02 0.63 -0.00 -3.47 -1.48 -0.00 0.57 1.33 -0.00 0.57 -0.42 -0.00 0.88 -0.77 -0.00 -0.36 0.63 -0.00 0.26 3.78 -0.00 1.50 1.33 -0.00 -0.67 -3.23 -0.00 1.19 2.38 -0.00 0.88 1.33 -0.00 2.12 0.63 -0.00 5.54 3.43 -0.00 6.78 2.03 -0.00 7.09 3.08 -0.00 8.33 3.78 -0.00 8.33 4.13 -0.00 8.02 0.98 -0.00 7.09 2.03 -0.00 7.09 1.33 -0.00 7.40 0.63 -0.00 5.54 -1.83 -0.00 3.36 -7.43 -0.00 0.57 -7.43 -0.00 -2.85 -5.68 -0.00 -3.47 -3.23 -0.00 -0.67 -1.48 -0.00 0.88 0.98 -0.00 2.43 1.68 -0.00 -0.67 2.03 -0.00 -3.78 -0.07 -0.00 -5.33 -0.77 -0.00 -5.64 -0.07 -0.00 -6.57 0.63 -0.00 -7.20 1.33 -0.00 -5.02 -0.42 -0.00 -3.47 -1.83 -0.00 -0.36 0.63 -0.00 -0.98 -0.07 -0.00 0.26 -0.77 -0.00 0.26 0.28 -0.00 0.26 1.33 -0.00 -2.85 0.28 -0.00 -2.54 -1.83 -0.00 -0.36 0.98 -0.00 -2.23 -1.12 -0.00 1.19 -0.07 -0.00 0.57 1.33 -0.00 2.74 0.98 -0.00 4.30 2.38 -0.00 6.78 2.73 -0.00 10.51 4.48 -0.00 8.95 4.13 -0.00 9.58 0.63 -0.00 9.58 -1.83 -0.00 7.40 -3.23 -0.00 5.54 -4.98 -0.00 2.74 -5.68 -0.00 2.43 -6.73 -0.00 -0.98 -8.13 -0.00 -3.78 -4.63 -0.00 -1.29 -2.18 -0.00 0.88 -0.42 -0.00 2.12 0.63 -0.00 0.26 -1.12 -0.00 -5.02 -1.83 -0.00 -6.26 0.28 -0.00 -7.20 0.63 -0.00 -8.75 2.03 -0.00 -6.89 0.28 -0.00 -4.40 -1.83 -0.00 -3.16 -2.53 -0.00 -0.67 -0.42 -0.00 -0.67 -0.42 -0.00 -0.98 -0.42 -0.00 -0.36 0.98 -0.00 -1.61 0.28 -0.00 -2.54 -0.77 -0.00 -2.23 -0.42 -0.00 -2.23 -0.07 -0.00 -1.61 -0.07 -0.00 -0.67 -0.42 -0.00 1.19 -1.83 -0.00 4.92 -1.12 -0.00 7.09 0.98 -0.00 10.82 3.78 -0.00 12.06 6.59 -0.00 11.13 6.24 -0.00 9.58 6.24 -0.00 9.58 1.33 -0.00 5.54 -3.58 -0.00 3.05 -6.03 -0.00 2.74 -7.43 -0.00 1.50 -7.08 -0.00 0.57 -8.13 -0.00 -3.16 -8.13 -0.00 -0.67 -3.93 -0.00 1.19 -1.83 -0.00 0.26 -0.77 -0.00 -0.98 -1.83 -0.00 -5.02 -1.83 -0.00 -6.89 -0.07 -0.00 -9.68 2.38 -0.00 -8.13 0.28 -0.00 -6.26 -1.12 -0.00 -3.47 -2.53 -0.00 -3.16 -2.18 -0.00 -0.36 -1.12 -0.00 0.26 -0.77 -0.00 0.26 -0.42 -0.00 -0.36 0.28 -0.00 -1.29 -1.48 -0.00 -2.23 -1.12 -0.00 -2.23 -0.42 -0.00 -2.54 -1.12 -0.00 -1.61 -1.83 -0.00 -0.36 -1.83 -0.00 3.36 -1.12 -0.00 7.09 1.33 -0.00 11.13 5.18 -0.00 12.68 10.09 -0.00 12.06 13.95 -0.00 15.48 9.04 -0.00 8.95 7.29 -0.00 8.64 4.83 -0.00 6.78 4.48 -0.00 3.36 6.59 -0.00 2.43 4.83 -0.00 3.05 -0.07 -0.00 3.05 -8.13 -0.00 -0.67 -11.64 -0.00 0.57 -4.98 -0.00 2.12 -1.12 -0.00 0.57 -1.83 -0.00 -1.29 -2.18 -0.00 -5.64 -0.77 -0.00 -8.75 0.98 -0.00 -9.37 1.33 -0.00 -7.20 -0.77 -0.00 -5.64 -1.12 -0.00 -3.47 -2.18 -0.00 -3.47 -1.48 -0.00 -0.36 -1.12 -0.00 0.26 -0.42 -0.00 0.57 -1.48 -0.00 -1.29 -1.48 -0.00 -1.61 -2.53 -0.00 -2.23 -1.83 -0.00 -1.61 -0.42 -0.00 0.57 -1.83 -0.00 1.19 -0.07 -0.00 4.30 1.68 -0.00 5.23 2.38 -0.00 7.09 3.78 -0.00 9.26 6.24 -0.00 12.37 10.09 -0.00 12.68 10.44 -0.00 9.58 10.44 -0.00 6.47 8.69 -0.00 4.61 1.68 -0.00 2.74 4.48 -0.00 3.36 7.99 -0.00 3.36 7.99 -0.00 3.05 3.78 -0.00 1.50 -4.63 -0.00 -0.36 -10.94 -0.00 -0.36 -7.43 -0.00 0.57 -1.48 -0.00 -0.36 -2.18 -0.00 -3.16 -2.18 -0.00 -6.89 -0.77 -0.00 -10.30 1.68 -0.00 -8.44 0.28 -0.00 -6.57 -1.48 -0.00 -6.26 -0.42 -0.00 -4.40 -1.12 -0.00 -3.78 -0.07 -0.00 0.26 -1.12 -0.00 -0.36 -0.77 -0.00 -0.67 -1.83 -0.00 -0.98 -1.83 -0.00 -1.29 -2.18 -0.00 -0.67 -1.83 -0.00 0.57 -1.83 -0.00 3.67 -0.07 -0.00 5.54 2.38 -0.00 6.16 2.38 -0.00 5.54 1.68 -0.00 5.23 3.78 -0.00 6.16 6.59 -0.00 12.68 6.94 -0.00 15.17 6.24 -0.00 17.96 10.79 -0.00 18.27 16.05 -0.00 13.92 15.70 -0.00 4.92 9.04 -0.00 -0.36 4.48 -0.00 4.30 7.64 -0.00 2.74 6.59 -0.00 -0.36 -0.77 -0.00 2.43 -5.68 -0.00 0.26 -6.38 -0.00 0.26 -1.83 -0.00 -0.36 -2.18 -0.00 -3.78 -1.83 -0.00 -7.20 -0.42 -0.00 -10.30 1.68 -0.00 -8.13 -0.07 -0.00 -6.26 -1.12 -0.00 -5.33 -0.07 -0.00 -3.78 -0.42 -0.00 -3.78 0.98 -0.00 -0.36 -1.48 -0.00 -0.98 -1.48 -0.00 -1.29 -2.18 -0.00 -0.67 -1.83 -0.00 -0.67 -1.83 -0.00 2.43 -0.42 -0.00 3.67 -0.77 -0.00 5.23 -0.42 -0.00 3.67 -0.07 -0.00 2.74 0.98 -0.00 2.74 2.73 -0.00 4.30 2.73 -0.00 6.78 4.48 -0.00 9.58 8.34 -0.00 13.92 10.79 -0.00 17.03 12.90 -0.00 14.86 13.25 -0.00 10.51 12.90 -0.00 4.92 11.14 -0.00 1.50 5.53 -0.00 0.88 5.53 -0.00 2.43 8.34 -0.00 1.50 3.08 -0.00 3.67 -3.58 -0.00 0.26 -6.73 -0.00 -1.61 -1.83 -0.00 -0.67 -3.23 -0.00 -3.47 -2.18 -0.00 -8.44 -0.07 -0.00 -9.68 0.63 -0.00 -8.44 0.28 -0.00 -6.57 -0.42 -0.00 -5.02 -0.07 -0.00 -3.78 -0.42 -0.00 -3.16 0.63 -0.00 -0.98 -1.83 -0.00 -0.98 -2.18 -0.00 -0.67 -1.83 -0.00 0.88 -0.42 -0.00 2.74 -1.12 -0.00 5.23 -0.07 -0.00 4.92 0.28 -0.00 3.05 -0.07 -0.00 1.50 0.98 -0.00 0.57 0.63 -0.00 -0.36 1.68 -0.00 1.50 3.43 -0.00 3.67 4.48 -0.00 5.23 5.18 -0.00 6.16 7.64 -0.00 9.58 10.79 -0.00 6.47 13.60 -0.00 3.05 12.55 -0.00 0.26 7.64 -0.00 -0.36 4.13 -0.00 -0.67 7.29 -0.00 2.43 6.59 -0.00 1.50 3.78 -0.00 3.67 -0.77 -0.00 -0.36 -6.03 -0.00 -2.54 -2.18 -0.00 -2.23 -2.18 -0.00 -3.47 -2.18 -0.00 -9.06 0.63 -0.00 -8.75 0.28 -0.00 -7.20 -0.07 -0.00 -6.26 0.28 -0.00 -4.40 0.28 -0.00 -3.16 -0.42 -0.00 -2.54 0.28 -0.00 -1.29 -2.18 -0.00 -1.61 -1.48 -0.00 -0.67 -1.83 -0.00 2.12 -0.77 -0.00 3.05 0.28 -0.00 4.30 1.33 -0.00 3.05 1.33 -0.00 0.57 3.08 -0.00 -0.67 2.73 -0.00 -2.23 2.73 -0.00 -0.98 3.08 -0.00 0.57 2.38 -0.00 1.50 4.48 -0.00 2.12 4.48 -0.00 1.19 5.53 -0.00 3.05 8.69 -0.00 1.50 11.84 -0.00 0.57 7.64 -0.00 0.26 6.94 -0.00 0.57 3.78 -0.00 1.50 7.29 -0.00 1.50 6.59 -0.00 1.50 4.13 -0.00 4.30 0.98 -0.00 -1.29 -4.63 -0.00 -2.85 -1.83 -0.00 -3.16 -3.23 -0.00 -2.85 -2.53 -0.00 -6.89 -0.07 -0.00 -6.89 -0.77 -0.00 -5.64 -0.42 -0.00 -4.71 0.28 -0.00 -3.47 0.28 -0.00 -2.23 -0.77 -0.00 -1.29 -0.77 -0.00 -0.98 -2.18 -0.00 -0.67 0.28 -0.00 -0.36 1.33 -0.00 0.57 1.68 -0.00 0.26 2.03 -0.00 1.19 3.78 -0.00 -0.36 3.78 -0.00 -2.54 3.43 -0.00 -3.47 2.73 -0.00 -2.85 3.43 -0.00 -2.23 3.78 -0.00 -1.29 4.48 -0.00 -0.67 4.48 -0.00 -0.98 4.13 -0.00 -0.36 4.48 -0.00 -0.36 5.53 -0.00 1.19 7.29 -0.00 0.88 5.18 -0.00 -0.36 4.13 -0.00 1.50 5.18 -0.00 1.50 4.48 -0.00 0.88 7.99 -0.00 2.43 5.18 -0.00 0.57 2.73 -0.00 -3.16 -3.23 -0.00 -3.78 -1.83 -0.00 -3.47 -2.53 -0.00 -1.29 -3.23 -0.00 -5.64 -0.07 -0.00 -3.78 -1.48 -0.00 -2.85 -1.12 -0.00 -2.54 -0.07 -0.00 -2.85 -0.42 -0.00 -0.67 -1.48 -0.00 0.57 -2.18 -0.00 -0.98 -2.53 -0.00 0.26 3.43 -0.00 -0.98 5.53 -0.00 -2.54 2.38 -0.00 -3.47 3.08 -0.00 -3.78 5.18 -0.00 -4.71 4.83 -0.00 -4.71 4.83 -0.00 -3.78 4.48 -0.00 -3.16 5.53 -0.00 -2.85 5.53 -0.00 -2.54 6.24 -0.00 -0.36 6.59 -0.00 -0.67 7.64 -0.00 -0.67 7.99 -0.00 1.19 7.64 -0.00 0.57 6.59 -0.00 0.57 4.48 -0.00 0.26 4.83 -0.00 2.43 6.24 -0.00 1.19 5.53 -0.00 0.26 7.29 -0.00 3.36 4.83 -0.00 -1.29 2.38 -0.00 -3.47 -1.48 -0.00 -4.71 -1.48 -0.00 -1.29 -3.93 -0.00 -0.36 -3.93 -0.00 -5.02 -1.12 -0.00 -2.23 -2.18 -0.00 -0.98 -1.83 -0.00 -0.98 -1.83 -0.00 -1.29 -0.77 -0.00 0.57 -1.83 -0.00 2.12 -3.58 -0.00 -2.85 -1.83 -0.00 -2.54 0.98 -0.00 -3.47 1.33 -0.00 -2.54 1.33 -0.00 -2.23 0.98 -0.00 -2.23 2.03 -0.00 -3.78 4.13 -0.00 -5.02 6.24 -0.00 -3.47 5.53 -0.00 -2.23 6.24 -0.00 -2.23 6.59 -0.00 -0.67 7.64 -0.00 0.88 7.29 -0.00 0.57 5.53 -0.00 1.19 7.29 -0.00 2.12 6.94 -0.00 1.50 6.24 -0.00 0.26 6.59 -0.00 1.50 7.29 -0.00 1.50 7.99 -0.00 0.57 6.59 -0.00 3.67 7.99 -0.00 1.50 6.59 -0.00 -2.23 0.98 -0.00 -4.40 -0.77 -0.00 -3.16 -2.53 -0.00 2.12 -3.58 -0.00 0.26 -4.63 -0.00 -3.78 -1.83 -0.00 -0.98 -2.18 -0.00 -0.36 -2.53 -0.00 0.26 -2.18 -0.00 0.88 -1.83 -0.00 2.43 -2.53 -0.00 2.43 -4.28 -0.00 -2.23 -3.23 -0.00 -1.29 -1.48 -0.00 -0.67 -2.18 -0.00 -2.23 -1.12 -0.00 -2.85 0.28 -0.00 -3.16 2.73 -0.00 -2.85 4.13 -0.00 -2.85 4.83 -0.00 -1.61 4.83 -0.00 -1.29 5.53 -0.00 -1.61 5.53 -0.00 -1.29 5.53 -0.00 -1.29 4.83 -0.00 0.26 5.18 -0.00 1.50 6.59 -0.00 1.19 7.64 -0.00 2.43 5.53 -0.00 1.50 5.18 -0.00 2.43 7.64 -0.00 0.57 6.94 -0.00 2.74 7.29 -0.00 4.30 7.29 -0.00 -1.29 5.53 -0.00 -2.85 1.68 -0.00 -1.29 -1.48 -0.00 0.26 -3.93 -0.00 4.92 -4.28 -0.00 2.12 -6.38 -0.00 -0.67 -1.83 -0.00 0.26 -1.83 -0.00 1.19 -3.58 -0.00 2.12 -3.58 -0.00 2.12 -2.18 -0.00 3.36 -2.18 -0.00 3.05 -2.53 -0.00 -0.67 -2.18 -0.00 -0.36 -2.18 -0.00 0.88 -3.58 -0.00 -0.67 -2.18 -0.00 0.26 -1.12 -0.00 -0.67 2.73 -0.00 -0.36 3.43 -0.00 -0.67 4.13 -0.00 -0.36 4.83 -0.00 -0.98 3.78 -0.00 -0.36 2.03 -0.00 -0.67 4.83 -0.00 -0.36 5.53 -0.00 0.57 4.48 -0.00 -0.36 4.13 -0.00 -0.67 4.13 -0.00 -0.36 4.48 -0.00 -0.36 4.48 -0.00 0.57 6.94 -0.00 2.74 7.29 -0.00 4.61 6.24 -0.00 1.50 7.64 -0.00 -2.54 6.24 -0.00 -2.23 0.98 -0.00 1.50 -1.83 -0.00 5.23 -4.98 -0.00 6.16 -4.63 -0.00 5.23 -7.43 -0.00 2.12 -1.83 -0.00 2.43 -3.93 -0.00 2.43 -4.28 -0.00 3.36 -4.28 -0.00 4.30 -2.53 -0.00 2.43 -0.42 -0.00 2.74 0.28 -0.00 -0.98 -2.18 -0.00 -0.36 -1.83 -0.00 0.88 -3.58 -0.00 0.88 -2.53 -0.00 2.74 -1.12 -0.00 2.43 0.98 -0.00 2.12 2.03 -0.00 0.57 3.78 -0.00 -0.36 4.13 -0.00 -0.67 4.13 -0.00 -0.36 3.78 -0.00 -0.36 3.78 -0.00 -0.67 4.13 -0.00 -0.36 2.03 -0.00 -0.67 2.03 -0.00 0.26 2.38 -0.00 0.88 4.13 -0.00 2.12 5.18 -0.00 3.05 6.24 -0.00 3.05 4.83 -0.00 3.36 3.78 -0.00 0.26 7.64 -0.00 -2.54 4.13 -0.00 0.57 2.03 -0.00 2.74 -1.12 -0.00 8.64 -4.98 -0.00 8.33 -6.03 -0.00 7.40 -7.78 -0.00 5.23 -4.28 -0.00 4.61 -5.68 -0.00 4.30 -5.68 -0.00 4.30 -4.98 -0.00 4.92 -2.18 -0.00 3.67 0.28 -0.00 1.19 2.73 -0.00 -0.67 -2.53 -0.00 -0.67 -3.23 -0.00 0.57 -2.18 -0.00 1.50 -2.18 -0.00 2.74 -2.18 -0.00 2.74 -1.83 -0.00 2.74 -1.83 -0.00 2.43 -1.12 -0.00 0.88 -0.42 -0.00 -0.36 1.33 -0.00 -2.54 1.33 -0.00 -1.29 2.03 -0.00 -0.67 4.48 -0.00 -0.98 2.03 -0.00 -1.61 2.03 -0.00 0.57 4.13 -0.00 0.26 5.18 -0.00 0.88 4.48 -0.00 2.74 3.08 -0.00 3.05 3.43 -0.00 1.50 6.94 -0.00 -0.98 5.53 -0.00 -0.36 2.38 -0.00 2.74 0.98 -0.00 4.92 -3.23 -0.00 10.82 -6.03 -0.00 9.58 -7.43 -0.00 8.95 -8.49 -0.00 6.78 -6.03 -0.00 6.47 -7.43 -0.00 4.92 -7.08 -0.00 5.54 -6.38 -0.00 5.54 -2.53 -0.00 4.61 0.98 -0.00 1.50 4.48 -0.00 -0.67 -3.23 -0.00 -1.29 -2.53 -0.00 0.57 -3.23 -0.00 0.88 -3.23 -0.00 2.12 -3.23 -0.00 1.19 -2.18 -0.00 0.88 -1.48 -0.00 1.19 -1.83 -0.00 -0.67 -1.83 -0.00 -1.29 -1.83 -0.00 -3.16 0.28 -0.00 -0.98 2.38 -0.00 -1.29 2.03 -0.00 -2.85 0.63 -0.00 0.26 2.73 -0.00 0.57 4.48 -0.00 1.19 2.38 -0.00 2.12 2.03 -0.00 3.67 3.78 -0.00 4.30 4.83 -0.00 0.57 4.48 -0.00 -0.67 2.73 -0.00 2.43 1.68 -0.00 3.05 -1.12 -0.00 8.02 -4.28 -0.00 10.20 -6.73 -0.00 8.95 -8.84 -0.00 8.95 -9.54 -0.00 8.02 -7.43 -0.00 7.09 -9.19 -0.00 5.54 -8.49 -0.00 6.16 -7.43 -0.00 6.78 -4.63 -0.00 3.36 0.98 -0.00 0.57 3.43 -0.00 -0.67 -1.48 -0.00 -0.67 -1.83 -0.00 0.88 -3.23 -0.00 -0.36 -3.23 -0.00 1.50 -3.23 -0.00 0.88 -2.53 -0.00 1.19 -2.18 -0.00 0.26 -2.53 -0.00 -0.67 -2.18 -0.00 -1.61 -1.83 -0.00 0.26 -0.07 -0.00 -1.61 2.03 -0.00 -2.85 -0.07 -0.00 0.57 2.38 -0.00 0.88 2.38 -0.00 -0.36 2.73 -0.00 1.50 2.03 -0.00 2.43 1.33 -0.00 3.67 3.43 -0.00 2.12 4.13 -0.00 1.19 1.33 -0.00 1.50 2.73 -0.00 3.05 0.63 -0.00 3.67 -3.23 -0.00 8.64 -4.63 -0.00 6.78 -8.13 -0.00 7.40 -9.89 -0.00 8.64 -9.54 -0.00 8.33 -8.84 -0.00 6.78 -10.24 -0.00 6.47 -9.89 -0.00 6.78 -8.13 -0.00 7.09 -6.03 -0.00 4.30 -0.42 -0.00 1.50 3.78 -0.00 -1.61 -0.07 -0.00 -0.67 -1.83 -0.00 0.57 -1.83 -0.00 -0.36 -1.83 -0.00 0.26 -2.53 -0.00 1.19 -3.23 -0.00 2.12 -3.23 -0.00 0.26 -3.23 -0.00 0.57 -2.53 -0.00 -0.36 -1.48 -0.00 1.50 0.28 -0.00 0.88 -0.42 -0.00 1.19 2.38 -0.00 2.74 0.98 -0.00 2.74 1.33 -0.00 0.88 2.38 -0.00 2.12 1.68 -0.00 3.67 2.03 -0.00 5.23 2.38 -0.00 2.12 2.03 -0.00 3.36 0.28 -0.00 3.05 0.63 -0.00 2.43 -1.83 -0.00 6.16 -4.98 -0.00 6.78 -4.98 -0.00 5.54 -8.49 -0.00 6.47 -8.84 -0.00 7.09 -8.49 -0.00 7.40 -10.94 -0.00 6.16 -10.94 -0.00 6.78 -10.24 -0.00 6.78 -10.24 -0.00 8.02 -8.13 -0.00 5.23 -0.42 -0.00 2.12 2.38 -0.00 -0.67 1.68 -0.00 -0.98 -0.77 -0.00 0.57 -2.18 -0.00 0.57 -1.83 -0.00 0.26 -1.83 -0.00 1.19 -1.83 -0.00 2.43 -3.23 -0.00 1.19 -2.53 -0.00 2.43 -3.23 -0.00 3.36 -1.83 -0.00 3.36 -0.77 -0.00 3.05 -1.12 -0.00 2.12 1.68 -0.00 3.67 2.03 -0.00 2.74 0.98 -0.00 2.12 2.03 -0.00 2.12 2.03 -0.00 3.05 3.08 -0.00 4.92 1.68 -0.00 3.05 0.28 -0.00 6.16 -1.12 -0.00 2.74 -1.48 -0.00 3.67 -3.23 -0.00 5.54 -4.63 -0.00 3.05 -5.33 -0.00 3.67 -8.13 -0.00 5.54 -7.43 -0.00 5.23 -8.84 -0.00 6.47 -10.94 -0.00 5.23 -11.29 -0.00 5.54 -11.29 -0.00 6.47 -10.94 -0.00 8.33 -8.49 -0.00 5.23 -2.18 -0.00 2.74 1.68 -0.00 -0.36 2.03 -0.00 -0.98 0.28 -0.00 0.57 -1.12 -0.00 0.26 -1.83 -0.00 0.57 -2.18 -0.00 1.19 -1.83 -0.00 2.12 -2.53 -0.00 2.12 -2.53 -0.00 2.43 -1.48 -0.00 2.74 -0.77 -0.00 3.05 -0.42 -0.00 3.05 -0.77 -0.00 5.23 1.68 -0.00 2.74 0.63 -0.00 3.05 -0.42 -0.00 3.05 0.28 -0.00 2.12 1.68 -0.00 4.92 3.43 -0.00 4.61 0.63 -0.00 5.54 -1.12 -0.00 6.16 -1.12 -0.00 2.43 -2.53 -0.00 4.30 -4.28 -0.00 3.36 -4.98 -0.00 0.88 -5.68 -0.00 1.50 -7.43 -0.00 2.74 -5.33 -0.00 3.67 -9.19 -0.00 4.30 -10.94 -0.00 4.30 -11.64 -0.00 5.54 -11.64 -0.00 6.16 -11.64 -0.00 7.09 -10.24 -0.00 5.54 -5.33 -0.00 3.05 -0.07 -0.00 -0.67 2.73 -0.00 -1.29 0.98 -0.00 -0.67 -0.77 -0.00 -0.36 -1.83 -0.00 0.57 -3.58 -0.00 0.88 -1.83 -0.00 1.19 -1.83 -0.00 2.74 -1.83 -0.00 3.05 -1.12 -0.00 3.05 -0.42 -0.00 3.36 -0.77 -0.00 5.23 -0.42 -0.00 6.16 0.98 -0.00 5.23 0.98 -0.00 4.92 0.63 -0.00 3.05 -0.07 -0.00 6.16 0.98 -0.00 4.61 1.68 -0.00 6.47 -0.77 -0.00 7.40 -2.18 -0.00 5.23 -1.83 -0.00 2.74 -1.83 -0.00 2.74 -4.28 -0.00 0.88 -3.23 -0.00 -0.67 -4.63 -0.00 